
14309 atoms
14896 bonds
16659 angles
23 atom types
7 bond types
18 angle types

-5.680607966083864 171.52447279080386 xlo xhi
-2.0 148.0 ylo yhi
-4 4 zlo zhi


Masses

1 0.0003187482881402356
2 0.0008287455491646125
3 0.000286873459326212
4 0.0003824979457682827
5 0.0005099972610243769
6 0.0007331210627225418
7 0.0006374965762804712
8 0.001147493837304848
9 0.0007649958915365655
10 0.000573746918652424
11 0.0010837441796768008
12 0.0010199945220487538
13 0.0004462476033963298
14 0.001083744179676801
15 0.00044624760339632985
16 0.0010199945220487536
17 0.0006374965762804712
18 0.0010199945220487538
19 0.00025499863051218845
20 0.0003187482881402356
21 0.0003824979457682827
22 0.0008924952067926596
23 0.000573746918652424

Pair Coeffs

1 0.40509979849834776 0.44544935907016964 0.5
2 0.40509979849834776 0.44544935907016964 0.5
3 0.40509979849834776 0.44544935907016964 0.5
4 0.40509979849834776 0.44544935907016964 0.5
5 0.40509979849834776 0.44544935907016964 0.5
6 0.40509979849834776 0.44544935907016964 0.5
7 0.40509979849834776 0.44544935907016964 0.5
8 0.40509979849834776 0.44544935907016964 0.5
9 0.40509979849834776 0.44544935907016964 0.5
10 0.40509979849834776 0.44544935907016964 0.5
11 0.40509979849834776 0.44544935907016964 0.5
12 0.40509979849834776 0.44544935907016964 0.5
13 0.40509979849834776 0.44544935907016964 0.5
14 0.40509979849834776 0.44544935907016964 0.5
15 0.40509979849834776 0.44544935907016964 0.5
16 0.40509979849834776 0.44544935907016964 0.5
17 0.40509979849834776 0.44544935907016964 0.5
18 0.40509979849834776 0.44544935907016964 0.5
19 0.40509979849834776 0.44544935907016964 0.5
20 0.40509979849834776 0.44544935907016964 0.5
21 0.40509979849834776 0.44544935907016964 0.5
22 0.40509979849834776 0.44544935907016964 0.5
23 0.40509979849834776 0.44544935907016964 0.5

Bond Coeffs

1 127.49931525609423 0.5
2 203.99890440975076 0.5
3 50.99972610243769 0.5
4 63.74965762804712 0.5
5 76.49958915365653 0.5
6 178.4990413585319 0.5
7 114.7493837304848 0.5

Angle Coeffs

1 17.271987342291585 180
2 70.74606015402631 180
3 1.105407189906661 180
4 2.158998417786448 180
5 3.73074926593498 180
6 47.39433326724809 180
7 12.591278772530558 180
8 27.765329730779555 120
9 1.462178822627859 120
10 3.73074926593498 120
11 6.136100766340426 120
12 19.896613274876966 120
13 17.271987342291585 120
14 2.077833063734326 120
15 2.7351534207734454 120
16 2.158998417786448 120
17 25.31748571968382 120
18 12.591278772530558 120

Atoms

1 1 1 -3.169480410882447 0.15261076252353295 0
2 1 2 3.6848917394695495 0.21052569246890396 0
3 1 3 10.767027844952473 0.003780611370137299 0
4 1 4 17.410261504763042 0.28430228830987053 0
5 1 5 24.40602631899411 0.2359126171547699 0
6 1 6 31.30961234641805 0.3364211582965356 0
7 1 6 38.30461982851262 0.07713298184837113 0
8 1 5 45.1460651947938 0.3807707850521186 0
9 1 4 52.02493704293512 0.1942546790091514 0
10 1 3 59.26832599820213 0.35933783905150884 0
11 1 2 65.96998367180666 0.12286688456686519 0
12 1 7 72.80812397456006 0.08932908928923436 0
13 1 7 79.80143165326879 0.22064842334751372 0
14 1 7 86.84139937950333 0.05785280680468113 0
15 1 7 93.60161407223846 0.2407710806275718 0
16 1 7 100.75555469466238 0.16653030748534464 0
17 1 2 107.48059180347124 0.2952065922515613 0
18 1 3 114.609602627281 0.20928244354186135 0
19 1 4 121.37466383710677 0.01938030493020411 0
20 1 5 128.38262825678623 0.2601272654040018 0
21 1 6 135.31554379629154 0.22074052952409198 0
22 1 6 142.21416386335116 0.2540269520453709 0
23 1 5 149.01828175929066 0.011305749947918553 0
24 1 4 156.175803059726 0.009833519318912787 0
25 1 3 162.8748368908218 0.1340036630479681 0
26 1 8 0.21734728300636266 2.275050326464894 0
27 1 9 7.18555395252829 2.060752888795524 0
28 1 5 14.057773575516302 2.30358369054432 0
29 1 10 20.822258250465023 2.379793863420067 0
30 1 11 27.73894730376902 2.3603057272067645 0
31 1 12 34.826863554708105 2.320308611723353 0
32 1 11 41.845014943870275 2.054610824170251 0
33 1 10 48.636112164427324 2.102271384251927 0
34 1 5 55.81433270868158 2.0250720397748134 0
35 1 9 62.49207261499172 2.328562704996691 0
36 1 8 69.5633909798463 2.2955710932234434 0
37 1 9 76.47215106659009 2.242689789860559 0
38 1 9 83.45495355188015 2.2866990319349356 0
39 1 9 90.18888368891051 2.1054199634334614 0
40 1 9 97.02017763826888 2.343000599429556 0
41 1 8 103.96383931586743 2.0098365524720783 0
42 1 9 111.12963400924878 2.3890623883714097 0
43 1 5 117.9677571876806 2.1597572987122113 0
44 1 10 124.89670801939403 2.2776646038798365 0
45 1 11 131.7783264779531 2.302042113821838 0
46 1 12 138.7649739633599 2.112622866825606 0
47 1 11 145.86994393557697 2.0528454235015685 0
48 1 10 152.5665478966529 2.0149674875204218 0
49 1 5 159.54984642810405 2.0440951415779756 0
50 1 9 166.38970750501332 2.315614954428306 0
51 1 9 0.3725139799953427 6.305639061532963 0
52 1 8 7.138600724797095 6.012044630970802 0
53 1 13 14.225359260947094 6.1625052387063235 0
54 1 10 20.920497275520574 6.375030985660056 0
55 1 2 27.808875560152078 6.11895506893664 0
56 1 14 35.025464944683385 6.173845467173626 0
57 1 2 41.892605698302575 6.346823878676691 0
58 1 10 48.86644312295265 6.269892116067642 0
59 1 13 55.437463467558345 6.3801703960266565 0
60 1 8 62.41796127515733 6.017224684342823 0
61 1 9 69.29705752672872 6.198610006499459 0
62 1 15 76.45726434006693 6.1133845034060155 0
63 1 15 83.29303389852794 6.268705280785018 0
64 1 15 90.21429752818877 6.269870302583003 0
65 1 15 97.04588083055327 6.079739073721974 0
66 1 9 103.97368174640741 6.192113837021121 0
67 1 8 110.88751555763503 6.368746179295381 0
68 1 13 118.11823317782394 6.357630389297676 0
69 1 10 125.08521586664043 6.294159270108382 0
70 1 2 131.82076480413733 6.026950310269691 0
71 1 14 138.58353448197 6.331555441812942 0
72 1 2 145.8722833728719 6.210695167960981 0
73 1 10 152.57688430431804 6.058148138086327 0
74 1 13 159.35163311791513 6.15126547192803 0
75 1 8 166.6722477693198 6.195009548569203 0
76 1 3 -3.3712902379690783 8.09738631387204 0
77 1 8 3.8502298129482244 8.355628729530553 0
78 1 9 10.761444625675079 8.12212866073423 0
79 1 5 17.6988154932086 8.010421006273075 0
80 1 10 24.250046182817588 8.353005323740215 0
81 1 2 31.458752899506866 8.132958062356701 0
82 1 2 38.252406028491755 8.337255439185668 0
83 1 10 45.19456397386157 8.205384834405136 0
84 1 5 52.2313120733385 8.347155627791485 0
85 1 9 58.99243899284472 8.184956551437828 0
86 1 8 65.82501002946321 8.222631915204595 0
87 1 13 72.9414513784445 8.02424640113404 0
88 1 5 80.0361304722483 8.295207670520982 0
89 1 5 86.96227137069049 8.039825701447949 0
90 1 5 93.6090217154016 8.20762871013391 0
91 1 13 100.72026420514771 8.358279450272395 0
92 1 8 107.4854891880784 8.269842835429532 0
93 1 9 114.3812957860783 8.128766982011264 0
94 1 5 121.47531366593363 8.04290724739165 0
95 1 10 128.28871849514826 8.127988741551546 0
96 1 2 135.32086744755577 8.247009955446583 0
97 1 2 142.34849263136584 8.096474945735132 0
98 1 10 149.13434931390842 8.203479408385851 0
99 1 5 156.22210916896358 8.113748896312343 0
100 1 9 162.8170315090225 8.290832890449922 0
101 1 1 -3.345840086756347 12.066260214577639 0
102 1 9 3.6083948017305807 12.083966697369965 0
103 1 8 10.783411299520477 12.041064930657242 0
104 1 13 17.58704731896633 12.084416579182045 0
105 1 10 24.255898293821147 12.005553040221944 0
106 1 10 31.339956355521142 12.193723276302984 0
107 1 10 38.29342235957275 12.345819549482552 0
108 1 10 45.04405243789547 12.382028220427092 0
109 1 13 52.1967785679266 12.22892876263224 0
110 1 8 58.963170645764386 12.388360461211617 0
111 1 9 65.88022021834345 12.393345489854068 0
112 1 5 72.76644241511029 12.082243159566893 0
113 1 10 79.79085455094443 12.083049858274865 0
114 1 10 86.9693270870847 12.320103662660452 0
115 1 10 93.84642703068423 12.05372708907347 0
116 1 5 100.64350905669151 12.009097258224052 0
117 1 9 107.73352526224355 12.124992216039761 0
118 1 8 114.42358029772936 12.344544022564033 0
119 1 13 121.49745367388117 12.168053567349443 0
120 1 10 128.23022425290694 12.027666675247913 0
121 1 10 135.11589634044057 12.33048457751814 0
122 1 10 142.31758753194427 12.304800293586187 0
123 1 10 149.22070913776264 12.296908148661942 0
124 1 13 156.28308193725155 12.24279476064289 0
125 1 8 162.81751313710433 12.304279957185502 0
126 1 13 0.23351140488165442 14.159987763330117 0
127 1 8 7.3059794141415875 14.070686304217771 0
128 1 9 14.193082851144995 14.136760003394244 0
129 1 5 20.909300015440124 14.29519258912803 0
130 1 10 28.091583799301077 14.079409517419323 0
131 1 10 34.70825564881002 14.185931335366499 0
132 1 10 41.76658423154043 14.309877467590397 0
133 1 5 48.86868553794673 14.263853473468167 0
134 1 9 55.69283607556347 14.386941739138932 0
135 1 8 62.564898299498566 14.23044335699232 0
136 1 13 69.32451755994218 14.185425354538664 0
137 1 10 76.47313018746078 14.304934136099124 0
138 1 10 83.29932684859685 14.167916079627693 0
139 1 10 90.27864101474755 14.033841834511344 0
140 1 10 97.2618286272988 14.168383684462794 0
141 1 13 104.17100350491718 14.217269499587372 0
142 1 8 111.05699419966811 14.102726330070716 0
143 1 9 117.82323273358014 14.078101074090892 0
144 1 5 124.8161520561643 14.061356101224254 0
145 1 10 131.85895266528686 14.004583305659898 0
146 1 10 138.90680603032607 14.2862575743748 0
147 1 10 145.7083735765424 14.127590023855362 0
148 1 5 152.6306889966441 14.16244559506513 0
149 1 9 159.55161287433643 14.013247188507531 0
150 1 8 166.33662368935717 14.229061911045271 0
151 1 5 0.34236976604564273 18.223304264068357 0
152 1 9 6.993831264021127 18.233052776979104 0
153 1 8 14.085979575690184 18.31471583685556 0
154 1 13 21.040062981857687 18.345003002871678 0
155 1 5 27.789398402552656 18.28457707672369 0
156 1 5 35.01489410711587 18.13868913855954 0
157 1 5 41.57271903767376 18.383030393920002 0
158 1 13 48.7074899198726 18.0505328643285 0
159 1 8 55.59151464595959 18.145804799846815 0
160 1 9 62.7466711354651 18.287666727847057 0
161 1 5 69.60308991895148 18.002262474485683 0
162 1 10 76.57353113283428 18.38378948420042 0
163 1 2 83.36213918630074 18.206756152855547 0
164 1 2 90.10506018315812 18.028949554371003 0
165 1 10 97.11236186514819 18.102546328571215 0
166 1 5 104.27015088286858 18.083650596945784 0
167 1 9 111.21298689895379 18.209268143297976 0
168 1 8 118.08499034112472 18.279238270850637 0
169 1 13 124.87073961712024 18.085336229012402 0
170 1 5 131.94135792075352 18.293812524716547 0
171 1 5 138.921200178541 18.203494407127515 0
172 1 5 145.63005746439393 18.26651505686666 0
173 1 13 152.5744901608493 18.22129231523819 0
174 1 8 159.39853814812437 18.185744047470596 0
175 1 9 166.5140546352847 18.36029001490071 0
176 1 4 -3.106779984812939 20.35390050035177 0
177 1 13 3.5629716481770077 20.36248395318224 0
178 1 8 10.57578513202732 20.147867167322698 0
179 1 9 17.43183129811766 20.229490474283846 0
180 1 15 24.30724173238006 20.100878435788935 0
181 1 15 31.528077025830196 20.321302354890648 0
182 1 15 38.32706060442775 20.209146382190017 0
183 1 15 45.212224983398386 20.10561843370894 0
184 1 9 52.16724480949241 20.016109955746906 0
185 1 8 59.234612171107266 20.04600426784424 0
186 1 13 66.14794908564163 20.137378695536327 0
187 1 10 72.78438487865594 20.39077572164792 0
188 1 2 79.67682336491052 20.07380791042276 0
189 1 14 86.706395144918 20.174602034046757 0
190 1 2 93.77880017098252 20.03027398352981 0
191 1 10 100.7997538451778 20.10430286192669 0
192 1 13 107.5852039540819 20.278158273550964 0
193 1 8 114.61355336688572 20.007698979854588 0
194 1 9 121.4449362947854 20.133501223776268 0
195 1 15 128.53189367648926 20.372591577731598 0
196 1 15 135.12341200827692 20.125476041302196 0
197 1 15 142.4154015723077 20.320662558517284 0
198 1 15 149.31740671150024 20.03029697875862 0
199 1 9 156.07834806897853 20.165001312127398 0
200 1 8 162.98709828249622 20.00454003616555 0
201 1 4 -3.069630661608487 24.379498526818768 0
202 1 5 3.6034805095181195 24.055588899932303 0
203 1 9 10.732586711600355 24.226513862483074 0
204 1 8 17.522659323095773 24.11645231078577 0
205 1 9 24.48212288223255 24.103166859427308 0
206 1 9 31.27575962020525 24.21230074628126 0
207 1 9 38.27392139867086 24.1937596163512 0
208 1 9 45.40064193903831 24.384792555244154 0
209 1 8 52.30805702387099 24.041012800383143 0
210 1 9 59.12797512680658 24.074145887781718 0
211 1 5 65.93069325220243 24.217531085148607 0
212 1 10 72.86341027913774 24.24179976600642 0
213 1 11 79.68539839828296 24.118797475232082 0
214 1 12 86.82266811258933 24.334954464616263 0
215 1 11 93.85233176067486 24.299554457218402 0
216 1 10 100.73877129829113 24.226999662364644 0
217 1 5 107.7684579233099 24.112330540223027 0
218 1 9 114.57108961415648 24.31806659881131 0
219 1 8 121.56777569760862 24.09158115815226 0
220 1 9 128.55585815946299 24.312747306063073 0
221 1 9 135.3600019747546 24.196746230263216 0
222 1 9 142.05599557218278 24.399795940591314 0
223 1 9 149.1019897433504 24.030621403687885 0
224 1 8 156.0618938169257 24.21655009043942 0
225 1 9 162.826225863372 24.161899876425895 0
226 1 10 0.28608554829759014 26.338237767361203 0
227 1 13 7.261667958166722 26.337523045583023 0
228 1 8 14.160208653121282 26.29249613981003 0
229 1 8 20.9399341070363 26.045164377807097 0
230 1 8 27.980203871482644 26.02239238613852 0
231 1 8 34.89116879854067 26.137159978513345 0
232 1 8 41.876127100035525 26.095952210522015 0
233 1 8 48.5973071029035 26.14950712595073 0
234 1 8 55.70400637867463 26.271427679872936 0
235 1 13 62.402699614005435 26.002776272110673 0
236 1 10 69.4325966538041 26.171473588192377 0
237 1 2 76.28294737763136 26.07367513728161 0
238 1 16 83.31174271457228 26.07591419583812 0
239 1 16 90.35072752447014 26.271181194241805 0
240 1 2 97.3080239797758 26.07377927200601 0
241 1 10 104.07289287814544 26.238195144145077 0
242 1 13 111.07360239192211 26.142413754831377 0
243 1 8 118.04093023639167 26.377038657458463 0
244 1 8 124.85383602828614 26.235707061946492 0
245 1 8 131.9215571258483 26.167507471260972 0
246 1 8 138.82164601849016 26.25595448615628 0
247 1 8 145.7457023517829 26.351893974422776 0
248 1 8 152.70320184580365 26.19798839315714 0
249 1 8 159.46910506658597 26.21663080936966 0
250 1 13 166.370790487401 26.2758325196468 0
251 1 10 0.37963597912042746 30.266805303904302 0
252 1 13 7.315684704391397 30.220644209318674 0
253 1 8 13.859590152268 30.24905388772709 0
254 1 8 21.044157184152976 30.397689605328868 0
255 1 8 27.9587572128287 30.02656917302484 0
256 1 8 34.88705705601212 30.353618186367473 0
257 1 8 41.601794134957494 30.064510739549327 0
258 1 8 48.513734375837714 30.34863212513691 0
259 1 8 55.73181473480764 30.182892099925756 0
260 1 13 62.585665299239125 30.07497543895592 0
261 1 10 69.52390368244586 30.332282614563944 0
262 1 2 76.27472232394253 30.009961365759736 0
263 1 16 83.35618261946311 30.284948052800306 0
264 1 16 90.3654134631935 30.39077980512698 0
265 1 2 97.07717128122195 30.235512241439686 0
266 1 10 104.0118639384297 30.24156746046789 0
267 1 13 111.24225359714453 30.1785029933759 0
268 1 8 117.79668176663337 30.166527949137784 0
269 1 8 124.82259255135762 30.053447614816914 0
270 1 8 131.63876671164425 30.294946712633955 0
271 1 8 138.62167755201008 30.353660617570043 0
272 1 8 145.66946096719718 30.06347816025875 0
273 1 8 152.75395902697994 30.1243785043595 0
274 1 8 159.36406472805757 30.26995926808172 0
275 1 13 166.58942578687626 30.072107981187536 0
276 1 4 -3.421406275335454 32.08621451938594 0
277 1 5 3.7505439207265283 32.09036252517022 0
278 1 9 10.730902211661903 32.17848340087637 0
279 1 8 17.589911693034168 32.27347177433805 0
280 1 9 24.494742350106765 32.103412765988935 0
281 1 9 31.183504835141292 32.04690179869461 0
282 1 9 38.15391430677075 32.278099007116545 0
283 1 9 45.304580034218446 32.24006145505756 0
284 1 8 52.09409359313085 32.15063891235146 0
285 1 9 59.126194091074105 32.337541218304224 0
286 1 5 65.92292922809588 32.34321113834738 0
287 1 10 73.00272543448213 32.118876734838125 0
288 1 11 80.00694013481505 32.345370422852646 0
289 1 12 86.79865420932727 32.01240481853453 0
290 1 11 93.53075923046838 32.23933779617313 0
291 1 10 100.7426750982744 32.073548155273926 0
292 1 5 107.54577995598292 32.104366748440064 0
293 1 9 114.67711402634419 32.02856975196432 0
294 1 8 121.27783835882882 32.21241121934735 0
295 1 9 128.50711977847587 32.031515004086174 0
296 1 9 135.12444077363762 32.24737953616123 0
297 1 9 142.1776895738086 32.215380680504445 0
298 1 9 148.9606230580632 32.16173846253578 0
299 1 8 155.98601210503395 32.007720123850596 0
300 1 9 162.82806524752843 32.009998974766255 0
301 1 4 -3.4449377896131512 36.02271350232512 0
302 1 13 3.522386066951802 36.02197347241282 0
303 1 8 10.498162451885008 36.31045269816625 0
304 1 9 17.32578621701404 36.184706420578635 0
305 1 15 24.573414529817512 36.2169425126544 0
306 1 15 31.38177767065454 36.39037612464865 0
307 1 15 38.46563068254143 36.00464963156522 0
308 1 15 45.40831261456936 36.369630396812234 0
309 1 9 52.24890790399097 36.108272833618514 0
310 1 8 59.22283902495272 36.01610189973052 0
311 1 13 66.18585259652215 36.16206877197432 0
312 1 10 73.10042839332246 36.09435055059577 0
313 1 2 79.95378839260664 36.02619968600706 0
314 1 14 86.6524823222603 36.32435739614081 0
315 1 2 93.77697738828826 36.222101094192006 0
316 1 10 100.46465744304557 36.30429155382656 0
317 1 13 107.53976806773895 36.32562082836926 0
318 1 8 114.40885327298943 36.03234607004498 0
319 1 9 121.61569958945643 36.372180084482636 0
320 1 15 128.4010098918328 36.15771029058473 0
321 1 15 135.33674132993482 36.03470360524093 0
322 1 15 142.33042422031576 36.07841509293077 0
323 1 15 149.0034931990192 36.05730728099811 0
324 1 9 156.1952301099688 36.01185237323116 0
325 1 8 162.91570256072512 36.11189836599999 0
326 1 5 0.029731655324817342 38.26675334051313 0
327 1 9 7.085410323416872 38.06007163339288 0
328 1 8 14.003425720400896 38.15502439614938 0
329 1 13 21.096191461057778 38.085971047609405 0
330 1 5 27.739225783286816 38.37712477735382 0
331 1 5 34.70026946177227 38.12180021060368 0
332 1 5 41.67944207528126 38.109474875962775 0
333 1 13 48.71933058012331 38.19933497092363 0
334 1 8 55.59424519924257 38.25148433507761 0
335 1 9 62.48502103244119 38.20062034827381 0
336 1 5 69.35367664970846 38.366897084817666 0
337 1 10 76.42299012095773 38.222253818045274 0
338 1 2 83.23128457965927 38.349962690493385 0
339 1 2 90.34374178689681 38.02886456062291 0
340 1 10 97.2742289682177 38.36657587048817 0
341 1 5 104.14727885085891 38.39717818663986 0
342 1 9 111.13523432171694 38.355719085941885 0
343 1 8 117.85188887808641 38.30966744070535 0
344 1 13 125.00643475720027 38.13685025914842 0
345 1 5 132.0099800501035 38.13152449087999 0
346 1 5 138.67151154516873 38.091462207562984 0
347 1 5 145.66313965776624 38.01384386314417 0
348 1 13 152.5503100121997 38.0882294788284 0
349 1 8 159.73014211106295 38.058071304253154 0
350 1 9 166.42294959569696 38.029623286336566 0
351 1 13 0.14969373454931542 42.107216972987445 0
352 1 8 7.261042264858244 42.33501978818437 0
353 1 9 13.992832292596683 42.003863597366546 0
354 1 5 20.854542710223036 42.16274077843474 0
355 1 10 27.944293157705705 42.27900480920514 0
356 1 10 34.655356839979625 42.20005838719183 0
357 1 10 41.67651025534382 42.08161421956787 0
358 1 5 48.61768148828915 42.31559557113255 0
359 1 9 55.440457595695804 42.22869811529033 0
360 1 8 62.403480489618936 42.059509754518075 0
361 1 13 69.36203897129354 42.13007466679176 0
362 1 10 76.21307320234683 42.09457153276266 0
363 1 10 83.2912794991174 42.26137199125997 0
364 1 10 90.2698820939823 42.074926886235836 0
365 1 10 97.38247022955088 42.02722274644232 0
366 1 13 104.09456516601419 42.257003611092124 0
367 1 8 111.15842917196188 42.2171606774981 0
368 1 9 117.82711317637745 42.22010989358495 0
369 1 5 124.86650218918619 42.06117197944592 0
370 1 10 132.01258292277637 42.177622535877575 0
371 1 10 138.76154692397722 42.10128962059577 0
372 1 10 145.85614807600393 42.12189219901712 0
373 1 5 152.66953520127745 42.2989022221597 0
374 1 9 159.43200286101393 42.224120784440885 0
375 1 8 166.3692350880917 42.09516880128696 0
376 1 1 -3.4384356437173094 44.00834190341683 0
377 1 9 3.86297880762942 44.36432051301488 0
378 1 8 10.784095531687855 44.18046586063651 0
379 1 13 17.573303464542914 44.347468123408355 0
380 1 10 24.58539380015923 44.39329314984573 0
381 1 10 31.42038951934126 44.29330681470014 0
382 1 10 38.48006120805869 44.15514448063135 0
383 1 10 45.38326520521531 44.292654951259244 0
384 1 13 52.156109800736104 44.15545467275115 0
385 1 8 59.21293026702073 44.234186149785764 0
386 1 9 65.98803945248459 44.34699807165563 0
387 1 5 73.11630877070081 44.056112778815596 0
388 1 10 79.79006056204464 44.210982961585174 0
389 1 10 86.90340283932775 44.3296341459334 0
390 1 10 93.55997957931936 44.315869198089146 0
391 1 5 100.75732790548302 44.15320405267202 0
392 1 9 107.72749599075541 44.09370054932339 0
393 1 8 114.61047925334887 44.262558938106096 0
394 1 13 121.27383418094898 44.19260849106531 0
395 1 10 128.17586038417153 44.224745786689 0
396 1 10 135.11947298203137 44.12165129934406 0
397 1 10 142.0685707224056 44.349022863808585 0
398 1 10 149.14927901876817 44.058847569926584 0
399 1 13 156.1077519285129 44.34671286274781 0
400 1 8 162.97712327252347 44.30892488881918 0
401 1 3 -3.416774174556238 48.25954325870502 0
402 1 8 3.786030200152352 48.33007112512045 0
403 1 9 10.543334406722709 48.092966889568956 0
404 1 5 17.672327017091487 48.35409135838478 0
405 1 10 24.358892614654714 48.014477633693836 0
406 1 2 31.367845984604216 48.37512622184943 0
407 1 2 38.344970197980786 48.0250433684126 0
408 1 10 45.35741269400205 48.32494896038594 0
409 1 5 52.312307687935345 48.25815636467788 0
410 1 9 58.945856566941586 48.048648996772215 0
411 1 8 66.06087323635317 48.372305991290176 0
412 1 13 72.88961910943783 48.3960209960012 0
413 1 5 79.7549523582199 48.371677437843886 0
414 1 5 86.63494587454286 48.16917367284131 0
415 1 5 93.59834663194114 48.11934487828243 0
416 1 13 100.79391446032959 48.27523872664441 0
417 1 8 107.39671140226281 48.01738702001594 0
418 1 9 114.56347097649811 48.23222616756825 0
419 1 5 121.28074783777679 48.180387036306236 0
420 1 10 128.40849422455227 48.16237262608786 0
421 1 2 135.26878356411558 48.24606206529061 0
422 1 2 142.3091844416622 48.083883214151726 0
423 1 10 149.21392922525033 48.22429499675543 0
424 1 5 156.17123249275738 48.180874804339616 0
425 1 9 162.8482598707069 48.26372956549927 0
426 1 9 0.13376070760669453 50.360064563606514 0
427 1 8 7.059554274005559 50.024877846522855 0
428 1 13 14.102565674664135 50.224837036110685 0
429 1 10 20.956150799161744 50.10225999901055 0
430 1 2 28.071662981021536 50.01960675620921 0
431 1 14 34.79480354768716 50.0115850889411 0
432 1 2 41.94481083582138 50.0809202688702 0
433 1 10 48.77274602474064 50.163174642914214 0
434 1 13 55.64104026531299 50.00036093312711 0
435 1 8 62.37294308583134 50.38033609332041 0
436 1 9 69.44996549983992 50.23630831201218 0
437 1 15 76.51953147698131 50.2394614762669 0
438 1 15 83.4768634686935 50.22776987657641 0
439 1 15 90.24247973319025 50.37333621422726 0
440 1 15 97.2121898881378 50.304903701984294 0
441 1 9 104.04352283791657 50.30102074211289 0
442 1 8 110.87829788714836 50.14455812059455 0
443 1 13 118.02552646858858 50.090242088412495 0
444 1 10 124.93875849787781 50.20993856154495 0
445 1 2 131.79485594584628 50.143081040653264 0
446 1 14 138.60229345728342 50.04453940606146 0
447 1 2 145.5832033434692 50.16300510673786 0
448 1 10 152.4378291374184 50.311482419475595 0
449 1 13 159.70450475494468 50.09460134110186 0
450 1 8 166.38718471170887 50.25116612817286 0
451 1 8 0.2343606858668854 54.34569577620637 0
452 1 9 7.205521323898596 54.14283870269906 0
453 1 5 14.02841578921532 54.36473515766582 0
454 1 10 20.9302026779665 54.358263520018504 0
455 1 11 27.853539120797013 54.04845791785744 0
456 1 12 34.963155392379896 54.17371122740146 0
457 1 11 41.852671561999124 54.070706653255094 0
458 1 10 48.76619926934055 54.13765536186516 0
459 1 5 55.46835497092992 54.39933454166321 0
460 1 9 62.4295086191188 54.37787798814225 0
461 1 8 69.56322128413146 54.38116928788466 0
462 1 9 76.29003492718594 54.03258978863387 0
463 1 9 83.15855155558596 54.38680020637292 0
464 1 9 90.33129445456373 54.01366346658402 0
465 1 9 97.2665801207468 54.363022994154264 0
466 1 8 104.15534261415446 54.39503574513746 0
467 1 9 110.85456242914033 54.058594022681476 0
468 1 5 118.08037695422013 54.31100095765487 0
469 1 10 125.0467719936274 54.34820417485866 0
470 1 11 131.86380473744026 54.165942207361155 0
471 1 12 138.81348457096223 54.157179078767115 0
472 1 11 145.86036420781272 54.15903287257484 0
473 1 10 152.47315934950825 54.32344449713234 0
474 1 5 159.47961347579752 54.29608184450313 0
475 1 9 166.50534078770897 54.3112396085929 0
476 1 2 -3.141801371572561 56.14691989935986 0
477 1 8 3.638659744095825 56.25595947698648 0
478 1 13 10.595843979916026 56.02063639446238 0
479 1 10 17.560347007423385 56.12346482182966 0
480 1 2 24.42276029130483 56.28013264242382 0
481 1 16 31.24065731679647 56.22003007369959 0
482 1 16 38.46056434350223 56.23537807680905 0
483 1 2 45.30278201013034 56.109852665296984 0
484 1 10 52.24842219982757 56.18371284887887 0
485 1 13 59.10085491966705 56.264948067796304 0
486 1 8 66.0686452218251 56.16686147853025 0
487 1 8 73.0098134263241 56.24171700647589 0
488 1 8 79.95785565493185 56.14327549850921 0
489 1 8 86.817409597384 56.0245184595779 0
490 1 8 93.57632066295017 56.28420768693202 0
491 1 8 100.48337492981067 56.007186147671284 0
492 1 8 107.412369928408 56.32223044760115 0
493 1 13 114.52061945780696 56.07989706126421 0
494 1 10 121.63224582674822 56.11581899976131 0
495 1 2 128.26350690453776 56.28353682128821 0
496 1 16 135.31720294034014 56.00045362535011 0
497 1 16 142.39631289713478 56.21296020390348 0
498 1 2 149.2962798066008 56.13407005197107 0
499 1 10 156.22280012259185 56.023210243567405 0
500 1 13 163.13359545444052 56.050339556791485 0
501 1 2 -3.331502497479239 60.030623450178446 0
502 1 8 3.4971703105031913 60.050321697128524 0
503 1 13 10.583032688975468 60.24097712066366 0
504 1 10 17.459938244398643 60.3217569601267 0
505 1 2 24.469490077449954 60.25374648351303 0
506 1 16 31.410323011918297 60.206944036313764 0
507 1 16 38.21581475934962 60.07622981444562 0
508 1 2 45.369061748796355 60.20454104286481 0
509 1 10 52.25053742503104 60.159201285807995 0
510 1 13 59.28200957782877 60.25635990769445 0
511 1 8 66.20103710948693 60.18583800433204 0
512 1 8 73.14588709592658 60.025236807438326 0
513 1 8 79.80464023092267 60.25397636776381 0
514 1 8 86.66493777256713 60.00509951809108 0
515 1 8 93.63068150429223 60.276849947473984 0
516 1 8 100.51209413350907 60.19489936916344 0
517 1 8 107.75382466422563 60.14719904663288 0
518 1 13 114.33611025685978 60.160119677689934 0
519 1 10 121.55678929417407 60.02729580615968 0
520 1 2 128.24416114995688 60.37321081916855 0
521 1 16 135.33638740365248 60.39067915990476 0
522 1 16 142.1758545791181 60.25017031612504 0
523 1 2 148.99999859578006 60.102148067221314 0
524 1 10 155.90834536956132 60.08334913497921 0
525 1 13 163.0916579762473 60.10669516004828 0
526 1 8 0.3514613315101035 62.088251032975855 0
527 1 9 7.290915224497563 62.058369575748074 0
528 1 5 14.111408640736755 62.25571339790038 0
529 1 10 21.165614522452525 62.373926596747516 0
530 1 11 27.751264571335902 62.312020194705475 0
531 1 12 34.75623990480737 62.13865226670904 0
532 1 11 41.892395212614154 62.28196050013951 0
533 1 10 48.54012652001153 62.060878438546005 0
534 1 5 55.50891410199243 62.07548465814199 0
535 1 9 62.54268812807742 62.34249601036884 0
536 1 8 69.28998329919395 62.03850090470054 0
537 1 9 76.40097616967203 62.24127410048165 0
538 1 9 83.26245413151403 62.276780623763564 0
539 1 9 90.12478403643146 62.01791185495143 0
540 1 9 97.27437338679731 62.35814578803249 0
541 1 8 104.02714844486412 62.30247272071382 0
542 1 9 111.07036154843233 62.34378337128242 0
543 1 5 118.14789412238817 62.196159577274024 0
544 1 10 125.0179158666395 62.36826335988862 0
545 1 11 132.02778759418248 62.05352229502033 0
546 1 12 138.94260268912225 62.03823902462086 0
547 1 11 145.7759559922121 62.39114191240652 0
548 1 10 152.79715717218377 62.38766793967478 0
549 1 5 159.74415200369896 62.32840859241875 0
550 1 9 166.57003620697844 62.29735495352048 0
551 1 9 0.07139810973217023 66.36684516935834 0
552 1 8 7.28755246384981 66.24150137176038 0
553 1 13 13.924027911368992 66.06130232340122 0
554 1 10 20.939757827262515 66.1730096907779 0
555 1 2 28.05997789469427 66.23154909038794 0
556 1 14 34.98917463581723 66.21758206298962 0
557 1 2 41.87908952885694 66.04848789233488 0
558 1 10 48.84493655053536 66.3434759957914 0
559 1 13 55.4330643667264 66.12463355274474 0
560 1 8 62.46107806091837 66.10369623035463 0
561 1 9 69.38455692390254 66.29615378057736 0
562 1 15 76.39742285507963 66.35248371509687 0
563 1 15 83.30958697280082 66.32097597778426 0
564 1 15 90.4476199177592 66.27275593958134 0
565 1 15 97.31629437579285 66.04908831558993 0
566 1 9 104.02171868828502 66.34194177564902 0
567 1 8 111.11113273058425 66.04549327518127 0
568 1 13 117.86697488375125 66.10080971609213 0
569 1 10 125.00722038139546 66.36670165280977 0
570 1 2 131.8829959680068 66.09242371942064 0