
14309 atoms
14896 bonds
16659 angles
32 atom types
9 bond types
25 angle types

-5.680607966083864 171.52447279080386 xlo xhi
-2.0 148.0 ylo yhi
-4 4 zlo zhi


Masses

1 0.0002633606057968492
2 0.0005469797197319175
3 0.00048620419531726
4 0.00046594568717904083
5 0.0004254286709026025
6 0.0004963334493863696
7 0.000536850465662808
8 0.0005773674819392463
9 0.0005976259900774654
10 0.0005267212115936984
11 0.0008103403255287667
12 0.0007698233092523284
13 0.0007293062929758901
14 0.0006482722604230133
15 0.0006887892766994516
16 0.0008305988336669858
17 0.0008913743580816433
18 0.0008711158499434242
19 0.0007495648011141092
20 0.00044568717904082167
21 0.0005064627034554791
22 0.0005874967360083559
23 0.0005571089738010271
24 0.0005267212115936984
25 0.0005672382278701367
26 0.00048620419531726
27 0.00044568717904082167
28 0.00040517016276438335
29 0.0005064627034554791
30 0.0005469797197319175
31 0.0005874967360083559
32 0.000607755244146575

Pair Coeffs

1 0.40509979849834776 0.44544935907016964 0.5
2 0.40509979849834776 0.44544935907016964 0.5
3 0.40509979849834776 0.44544935907016964 0.5
4 0.40509979849834776 0.44544935907016964 0.5
5 0.40509979849834776 0.44544935907016964 0.5
6 0.40509979849834776 0.44544935907016964 0.5
7 0.40509979849834776 0.44544935907016964 0.5
8 0.40509979849834776 0.44544935907016964 0.5
9 0.40509979849834776 0.44544935907016964 0.5
10 0.40509979849834776 0.44544935907016964 0.5
11 0.40509979849834776 0.44544935907016964 0.5
12 0.40509979849834776 0.44544935907016964 0.5
13 0.40509979849834776 0.44544935907016964 0.5
14 0.40509979849834776 0.44544935907016964 0.5
15 0.40509979849834776 0.44544935907016964 0.5
16 0.40509979849834776 0.44544935907016964 0.5
17 0.40509979849834776 0.44544935907016964 0.5
18 0.40509979849834776 0.44544935907016964 0.5
19 0.40509979849834776 0.44544935907016964 0.5
20 0.40509979849834776 0.44544935907016964 0.5
21 0.40509979849834776 0.44544935907016964 0.5
22 0.40509979849834776 0.44544935907016964 0.5
23 0.40509979849834776 0.44544935907016964 0.5
24 0.40509979849834776 0.44544935907016964 0.5
25 0.40509979849834776 0.44544935907016964 0.5
26 0.40509979849834776 0.44544935907016964 0.5
27 0.40509979849834776 0.44544935907016964 0.5
28 0.40509979849834776 0.44544935907016964 0.5
29 0.40509979849834776 0.44544935907016964 0.5
30 0.40509979849834776 0.44544935907016964 0.5
31 0.40509979849834776 0.44544935907016964 0.5
32 0.40509979849834776 0.44544935907016964 0.5

Bond Coeffs

1 105.34424231873967 0.5
2 113.44764557402733 0.5
3 97.240839063452 0.5
4 89.13743580816433 0.5
5 81.03403255287667 0.5
6 101.29254069109584 0.5
7 109.3959439463835 0.5
8 117.49934720167117 0.5
9 121.551048829315 0.5

Angle Coeffs

1 9.742068198831648 180
2 12.167608164585362 180
3 7.662400476823436 180
4 5.901999441349532 180
5 4.4342595351987475 180
6 8.660663154685054 180
7 10.90994130391462 180
8 13.51839447549528 180
9 14.965625931295774 180
10 10.820576862009325 120
11 7.662400476823436 120
12 6.667966678425626 120
13 5.063920584598482 120
14 8.13100665220321 120
15 10.292983083690025 120
16 12.807483460696675 120
17 14.205244345613757 120
18 9.742068198831648 120
19 8.577984126155973 120
20 5.901999441349532 120
21 9.169592217508171 120
22 8.660663154685054 120
23 11.504504935920918 120
24 10.90994130391462 120
25 13.51839447549528 120

Atoms

1 1 1 -3.121342629079699 0.1632681329538564 0
2 1 2 3.800277266146592 0.025225592988638735 0
3 1 3 10.721518839804459 0.23468242638323364 0
4 1 4 17.69499564627035 0.07473294996932167 0
5 1 5 24.64748490581357 0.1696967544545125 0
6 1 6 31.226776285631818 0.1536568340522181 0
7 1 7 38.421157440568635 0.39427541648374226 0
8 1 8 45.18910262506098 0.08898417630459776 0
9 1 9 52.112361346521595 0.2590758553879975 0
10 1 2 59.10824138335174 0.08301465211991599 0
11 1 2 65.84959415754733 0.004452888290031698 0
12 1 9 72.95179773454595 0.1921206760692123 0
13 1 8 80.06107499290121 0.24368815823657128 0
14 1 7 86.88667626058407 0.13160208648195545 0
15 1 6 93.60496589792311 0.2077949393167404 0
16 1 5 100.62876844810513 0.2526971473619357 0
17 1 4 107.67719999900085 0.0493945147377787 0
18 1 3 114.7034630265217 0.29518410196495964 0
19 1 2 121.41996434021618 0.2972573551759788 0
20 1 10 128.40349947606148 0.36965533928654126 0
21 1 10 135.22630615816345 0.3895152388642622 0
22 1 10 142.1914181910823 0.37756796149832794 0
23 1 10 148.97430955583295 0.16481184720705144 0
24 1 10 156.01929433773708 0.37537868923431345 0
25 1 10 163.05776281661443 0.3074967254579615 0
26 1 11 0.11963730311387595 2.2715942365389474 0
27 1 12 7.049649192671181 2.1763067856835314 0
28 1 13 14.045402082698683 2.381704074684559 0
29 1 14 20.839902873469285 2.18137499010509 0
30 1 15 27.90394403543878 2.0668167101184913 0
31 1 12 34.878525826263015 2.1732042894142833 0
32 1 16 41.669980034372315 2.1497848346279333 0
33 1 17 48.54830725894298 2.194658121722051 0
34 1 18 55.45675523445562 2.127758896837977 0
35 1 11 62.65924020040879 2.09705141426078 0
36 1 18 69.5532651223884 2.1364284018178257 0
37 1 17 76.31883853631389 2.229777981479919 0
38 1 16 83.33461399223829 2.2927869662642824 0
39 1 12 90.39919891553794 2.1535230370089686 0
40 1 15 97.17045608843749 2.0772858077869194 0
41 1 14 104.07279928003928 2.388721673112467 0
42 1 13 111.1660935805703 2.3887266434398593 0
43 1 12 117.84478559349706 2.196210079792665 0
44 1 11 125.01396719963888 2.176954957953236 0
45 1 12 131.96240602691688 2.2535253593579263 0
46 1 12 138.60419350460498 2.3410189907716212 0
47 1 12 145.80329433587076 2.21024442679907 0
48 1 12 152.46682720839462 2.0723020207824057 0
49 1 12 159.48859924239343 2.105919728167069 0
50 1 12 166.30756556955168 2.36287236885526 0
51 1 12 0.0920261589150023 6.179333273156337 0
52 1 11 7.009467055754391 6.038011371371894 0
53 1 13 13.994543404767446 6.019303395044237 0
54 1 15 20.8026633982737 6.333904037894238 0
55 1 14 27.76992227326829 6.30505391906547 0
56 1 19 34.764057732781744 6.325616671420934 0
57 1 11 41.58662363535184 6.138356280011056 0
58 1 18 48.519803638401605 6.2993626113339545 0
59 1 17 55.698282162072395 6.30180702682817 0
60 1 18 62.468328841606926 6.119044110440576 0
61 1 17 69.67308115369674 6.371090410290821 0
62 1 18 76.42228230880478 6.33847700897704 0
63 1 11 83.42480436664114 6.119769713760182 0
64 1 19 90.44379641819235 6.292255126078489 0
65 1 14 97.37732630721777 6.0077667115793485 0
66 1 15 104.16832281067481 6.109945165271931 0
67 1 13 111.07516881239715 6.04732338647838 0
68 1 11 117.7871047278254 6.30944884684205 0
69 1 12 124.70787310083057 6.070397942386392 0
70 1 13 131.9162423704287 6.2840071236048995 0
71 1 13 138.57389980101516 6.093949695071184 0
72 1 13 145.5372959197937 6.1488405625287355 0
73 1 13 152.63476033659515 6.313952943799987 0
74 1 13 159.37485937929645 6.048266000872657 0
75 1 13 166.43038704081522 6.324948536269922 0
76 1 3 -3.0830240696173052 8.342241184122834 0
77 1 11 3.587492346451522 8.356032330683302 0
78 1 12 10.736607322864096 8.074289257908333 0
79 1 13 17.41280036164262 8.183622085947041 0
80 1 14 24.5100154626446 8.16793281987017 0
81 1 15 31.177247046363192 8.366961417183608 0
82 1 12 38.473490309024584 8.361033454434939 0
83 1 16 45.05548841980519 8.168116500253165 0
84 1 17 52.29310067995091 8.002468439787606 0
85 1 17 59.015096526769426 8.11489730369064 0
86 1 17 65.92124476897109 8.06582085948649 0
87 1 17 73.0847856002788 8.181333810013333 0
88 1 16 80.00367529760334 8.00593510327205 0
89 1 12 86.8079404249356 8.308969678547852 0
90 1 15 93.72614187189005 8.183940577546082 0
91 1 14 100.76782630110633 8.313565394164023 0
92 1 13 107.49761150458703 8.135536391209332 0
93 1 12 114.35203368698755 8.230727940318607 0
94 1 11 121.29227782025214 8.03578915778326 0
95 1 13 128.1840911661852 8.011017158139234 0
96 1 13 135.26503260732864 8.215563675080377 0
97 1 13 142.098304893571 8.230024856722 0
98 1 13 149.34846522036332 8.021613195099022 0
99 1 13 156.13480144231445 8.300022294588853 0
100 1 13 162.8210470692515 8.219237262287917 0
101 1 3 -3.214626121328208 12.203402489417376 0
102 1 12 3.757737923068952 12.197481046820162 0
103 1 11 10.705763473758806 12.150406632913676 0
104 1 13 17.678356627774992 12.141926255988956 0
105 1 15 24.420273430052365 12.361764679405354 0
106 1 14 31.19220867900663 12.37671253352027 0
107 1 19 38.12003531882759 12.008285482696857 0
108 1 11 45.27908923135588 12.129278248179782 0
109 1 18 52.28329649160005 12.274451929364467 0
110 1 17 59.074403920483945 12.141666869273099 0
111 1 17 66.18843869691767 12.09861927080039 0
112 1 18 72.75506826795564 12.03109188442565 0
113 1 11 79.82353517602469 12.133182823007806 0
114 1 19 86.63244552280877 12.070323964930653 0
115 1 14 93.65256591659195 12.10732811548909 0
116 1 15 100.79912639059991 12.346963262378692 0
117 1 13 107.76313717973095 12.3070912472537 0
118 1 11 114.47109980796816 12.292649983592442 0
119 1 12 121.3413388742973 12.228664169472689 0
120 1 13 128.51122940830834 12.130901633398457 0
121 1 15 135.18479653332113 12.224734693238403 0
122 1 15 142.2042968845392 12.348258432198193 0
123 1 15 149.10138708664297 12.136318293491767 0
124 1 15 155.93645991720177 12.215752422638234 0
125 1 15 163.08200588259893 12.067483229987996 0
126 1 13 0.33275314983076687 14.1060136908188 0
127 1 11 7.186156038955719 14.028754059500786 0
128 1 12 13.899128102567916 14.117195799483223 0
129 1 13 20.85203641396665 14.39724865579729 0
130 1 14 27.837509553343 14.106176752156756 0
131 1 15 34.788487812559836 14.197185402746877 0
132 1 12 41.91713277247595 14.089630889604823 0
133 1 16 48.61869276055694 14.29555040822269 0
134 1 18 55.51403548666728 14.230619035503658 0
135 1 18 62.533962353919996 14.289889275918405 0
136 1 18 69.63816533345779 14.045028643996648 0
137 1 16 76.34962095313567 14.266823419331528 0
138 1 12 83.39072433100645 14.236596917504444 0
139 1 15 90.20479477812046 14.19634202768454 0
140 1 14 97.0155243791927 14.270084004691514 0
141 1 13 103.99112863058093 14.212906445215088 0
142 1 12 111.07921059909371 14.086201226617478 0
143 1 11 117.96168021208486 14.390965701287472 0
144 1 13 124.82021566817401 14.059564835317945 0
145 1 15 131.95424851351302 14.070342513879318 0
146 1 14 138.95036892072753 14.143081992745346 0
147 1 14 145.78969064773082 14.146801427452633 0
148 1 14 152.80689375902045 14.370164167855073 0
149 1 14 159.60182678140825 14.179349196861514 0
150 1 14 166.31737729617043 14.010053633827981 0
151 1 13 0.03947775566992289 18.116416511003223 0
152 1 12 6.9506150539846745 18.066745639765024 0
153 1 11 13.908803963313986 18.31422066092746 0
154 1 13 20.81465702395898 18.285922412487803 0
155 1 15 27.93313306731764 18.317200708450194 0
156 1 14 34.64910158562448 18.289182430593918 0
157 1 19 41.913907365584805 18.081699428914217 0
158 1 11 48.89543682757385 18.264027752489586 0
159 1 16 55.46299331558841 18.164345422431374 0
160 1 16 62.40832571196756 18.184575093648053 0
161 1 16 69.53239778202534 18.16958853047494 0
162 1 11 76.53638201142836 18.314121775530506 0
163 1 19 83.46250993276125 18.26355104019234 0
164 1 14 90.13465620599993 18.039696399298474 0
165 1 15 97.00450597983262 18.039499755720623 0
166 1 13 104.06021786218017 18.282117680490686 0
167 1 11 111.05965947550791 18.3251556236812 0
168 1 12 117.99626082721852 18.053557721915183 0
169 1 13 125.09344195721644 18.134384458878728 0
170 1 14 131.7851725081126 18.242483775222677 0
171 1 14 138.89893191727228 18.245571827850924 0
172 1 14 145.88179497135576 18.11597804891116 0
173 1 14 152.8063242757557 18.01293586031808 0
174 1 14 159.40174314724166 18.292472075429906 0
175 1 14 166.30264199529 18.21990222138616 0
176 1 4 -3.0703575016329863 20.26504236241405 0
177 1 13 3.572986390241181 20.175844074815114 0
178 1 11 10.43610167975747 20.154219958849446 0
179 1 12 17.445535468377717 20.39961483333764 0
180 1 13 24.361403810214753 20.10631176621341 0
181 1 14 31.3823679854763 20.026187508841833 0
182 1 15 38.44955648278857 20.05772636822895 0
183 1 12 45.20903292049195 20.21874332061398 0
184 1 11 51.99400937670229 20.247354376029133 0
185 1 11 58.972152749898726 20.13031789537237 0
186 1 11 66.21278646742691 20.34567259965747 0
187 1 11 73.07302780447328 20.253694860712645 0
188 1 12 79.7772205589467 20.0363871116699 0
189 1 15 86.725983664275 20.284082132728447 0
190 1 14 93.73664156614176 20.298734812254796 0
191 1 13 100.63454431601238 20.162320788493687 0
192 1 12 107.47752996746647 20.38032102819513 0
193 1 11 114.62177214832812 20.364324665819215 0
194 1 13 121.4034109698396 20.005324558353113 0
195 1 15 128.40321237290513 20.254273631064518 0
196 1 14 135.39132624192416 20.11772156427804 0
197 1 15 142.35428646124572 20.210628855129688 0
198 1 15 149.13221104196793 20.296755989754786 0
199 1 15 156.25116437726882 20.205444999722914 0
200 1 15 162.98513630629213 20.11254338917682 0
201 1 20 -3.271800712585272 24.050829816488566 0
202 1 13 3.568728927775445 24.365581281385932 0
203 1 12 10.488206033937637 24.17005431336964 0
204 1 11 17.703483847324634 24.17530051455467 0
205 1 13 24.586352764775256 24.14571612956393 0
206 1 15 31.28286076371611 24.09512671316058 0
207 1 14 38.20178324681333 24.024147841809256 0
208 1 19 45.330016100903826 24.21481023807243 0
209 1 12 52.07654225168058 24.343263888783234 0
210 1 12 58.99616127906556 24.226854613420187 0
211 1 12 66.21075055299663 24.017121662833915 0
212 1 12 73.08809288729957 24.119916183082825 0
213 1 19 79.93402243874864 24.366348483795367 0
214 1 14 86.68218309660622 24.169084009914464 0
215 1 15 93.72318474545091 24.037592774877627 0
216 1 13 100.5424308197377 24.056933463529877 0
217 1 11 107.537034821643 24.138045441489655 0
218 1 12 114.68620368664402 24.27263362981022 0
219 1 13 121.24879821073783 24.004932793028832 0
220 1 14 128.5180951733376 24.100926916566365 0
221 1 15 135.1172808440334 24.327748053835048 0
222 1 19 142.37865256878467 24.077387422486748 0
223 1 19 149.3307124302862 24.195040309535617 0
224 1 19 156.14845022779184 24.001506701154142 0
225 1 19 163.2029975678867 24.39621209206371 0
226 1 15 0.024108417899515146 26.163584982783 0
227 1 13 7.28400912605103 26.376484025784706 0
228 1 11 14.109138116332312 26.163768941995134 0
229 1 12 20.947849263573126 26.176479392761042 0
230 1 13 27.92654194440335 26.11864394194089 0
231 1 14 34.848416275141886 26.05131769981726 0
232 1 15 41.77691494875959 26.357109028285578 0
233 1 19 48.70506378636654 26.35136334342375 0
234 1 19 55.613315529796644 26.009099585650546 0
235 1 19 62.46859711039508 26.38075793813543 0
236 1 19 69.43709552360652 26.325152626375903 0
237 1 19 76.44010526117064 26.145274969799818 0
238 1 15 83.16235889354324 26.206553084781252 0
239 1 14 90.12338659538831 26.31700116738696 0
240 1 13 97.30925450502178 26.11470020266477 0
241 1 12 104.05171961650899 26.07659670591505 0
242 1 11 110.98911439577778 26.327603415789834 0
243 1 13 117.85528405259802 26.01436709414395 0
244 1 15 124.89370835602597 26.295638456010053 0
245 1 14 131.73445088151553 26.056814150519273 0
246 1 19 138.81115599937885 26.378847604674743 0
247 1 12 145.8532954433181 26.18024431978655 0
248 1 12 152.4276172297226 26.30620652689934 0
249 1 12 159.70252884164313 26.050114596372637 0
250 1 12 166.4038779060853 26.14674456016338 0
251 1 14 0.35433634427016686 30.31007321125263 0
252 1 13 7.231186325100769 30.157395125032302 0
253 1 12 13.996714579681678 30.143372115580636 0
254 1 11 21.182917313536358 30.345562519730976 0
255 1 13 27.796376390927616 30.05805890021553 0
256 1 15 34.888879244860604 30.389567669383773 0
257 1 14 41.90943497200708 30.04086334672085 0
258 1 15 48.50151894006557 30.164163840313023 0
259 1 15 55.640021431486986 30.309121085200815 0
260 1 15 62.67881501218981 30.189913173904408 0
261 1 15 69.43771794412926 30.027595432889566 0
262 1 15 76.37642273186351 30.1195654432657 0
263 1 14 83.26003381786157 30.200336102023584 0
264 1 15 90.43110604478736 30.25412994611591 0
265 1 13 97.02726306696005 30.031562202744283 0
266 1 11 104.22009054952936 30.218437503380827 0
267 1 12 111.12699735548138 30.030162272126333 0
268 1 13 117.99509356360363 30.13480722347192 0
269 1 14 124.84075626043318 30.29515129929084 0
270 1 15 131.7396692678653 30.300245698013228 0
271 1 12 138.8905331055025 30.042197578516845 0
272 1 11 145.70646115678633 30.39131917264835 0
273 1 11 152.61216337983333 30.059257779170967 0
274 1 11 159.524118114115 30.06157188454549 0
275 1 11 166.6364169128478 30.2483155324322 0
276 1 5 -3.333069341890248 32.344242147564046 0
277 1 15 3.8339756674202388 32.34418832936535 0
278 1 13 10.418892980184879 32.17318717267839 0
279 1 11 17.476505034609954 32.25078602812356 0
280 1 12 24.318068085100332 32.305413222923065 0
281 1 13 31.450837174511516 32.13023468263268 0
282 1 14 38.35253050136871 32.16994170027187 0
283 1 14 45.18389470616229 32.148064061274916 0
284 1 14 52.13014427250253 32.13440602116087 0
285 1 14 59.244545095626734 32.305382519588186 0
286 1 14 66.06773883907145 32.00605824526967 0
287 1 14 72.93785880319903 32.22288973647212 0
288 1 14 79.84756262200236 32.293390333192484 0
289 1 14 86.63731112733099 32.01089113103099 0
290 1 13 93.81673702153353 32.1293642522379 0
291 1 12 100.48763976437384 32.370518843372345 0
292 1 11 107.70344590354148 32.14561875918076 0
293 1 13 114.67344090104443 32.2416114362468 0
294 1 15 121.59178555155147 32.33437339033742 0
295 1 14 128.21193571118005 32.27032208123965 0
296 1 19 135.36326599445258 32.33773592754008 0
297 1 11 142.3129424582197 32.221560432094755 0
298 1 16 149.06070441512676 32.24072252377068 0
299 1 16 156.15958512339483 32.228657051402344 0
300 1 16 163.1401430921914 32.19083274173617 0
301 1 20 -3.3795798928677163 36.00771629798205 0
302 1 14 3.7815261243751923 36.25071793654248 0
303 1 13 10.469160821913478 36.37215890053483 0
304 1 12 17.486859343478866 36.30037331396101 0
305 1 11 24.56891467588716 36.05209600386807 0
306 1 13 31.403160179780844 36.03884097007699 0
307 1 15 38.19176914936701 36.07670992952885 0
308 1 14 45.320651754227455 36.06078778150652 0
309 1 14 52.356120224011505 36.06372080833814 0
310 1 14 59.19893939933535 36.39293310872108 0
311 1 14 65.95349154983056 36.08216426815088 0
312 1 14 73.09995523790968 36.033068806922195 0
313 1 14 79.73522395124878 36.27643321104035 0
314 1 15 86.92825949718163 36.351781136847684 0
315 1 13 93.90267469343318 36.048098386379166 0
316 1 11 100.75112740819858 36.36679539260703 0
317 1 12 107.44683557109111 36.132449734651864 0
318 1 13 114.6179484122659 36.39357637642625 0
319 1 14 121.609288255305 36.10419784884245 0
320 1 15 128.5602158634089 36.050133616804956 0
321 1 12 135.4527141934648 36.03918854523013 0
322 1 16 142.04193134718446 36.06327090843629 0
323 1 18 149.17624675687242 36.39754938603297 0
324 1 18 156.16933436417509 36.32583869483829 0
325 1 18 162.869365024354 36.28725192489603 0
326 1 14 0.051038666336961705 38.21201287135355 0
327 1 15 7.174977096207309 38.23644406832094 0
328 1 13 14.247303601969811 38.325455027765024 0
329 1 11 21.036328002373633 38.05089865013054 0
330 1 12 27.880143588943536 38.366885045868926 0
331 1 13 34.97006164604391 38.051971499488495 0
332 1 15 41.965965262988824 38.335217381132246 0
333 1 15 48.55460446278704 38.26183504319257 0
334 1 15 55.44504397217832 38.10100625817385 0
335 1 15 62.686453722081566 38.270543553730555 0
336 1 15 69.47442311130492 38.16088074774349 0
337 1 15 76.34900393683787 38.14326019518118 0
338 1 15 83.49298143515578 38.25102715114767 0
339 1 13 90.1882270373531 38.30683443662629 0
340 1 12 97.1795448920344 38.15805992990041 0
341 1 11 104.27024326770068 38.05887639856909 0
342 1 13 111.12495428102659 38.39688117546454 0
343 1 15 118.15972003132252 38.01666201068977 0
344 1 14 124.91596769872359 38.151647152897084 0
345 1 19 131.80846046967085 38.076159798780935 0
346 1 11 138.88625515175096 38.1175314109074 0
347 1 18 145.70470346946428 38.217213938450804 0
348 1 17 152.5353093257411 38.302589364536054 0
349 1 17 159.4251941877577 38.11298027215755 0
350 1 18 166.5800750176658 38.15814225418313 0
351 1 15 0.36340354344670495 42.36771827118968 0
352 1 14 7.319281277528836 42.01073370119189 0
353 1 13 13.966576629132343 42.369661948525696 0
354 1 12 21.16420710961949 42.275237919496824 0
355 1 11 28.031870790287105 42.36071287903128 0
356 1 13 34.731845809878045 42.143822378673846 0
357 1 13 41.89356306451843 42.15302307984908 0
358 1 13 48.88155807297176 42.23461366205715 0
359 1 13 55.74204276904616 42.141449901527466 0
360 1 13 62.70288780029531 42.21161325808311 0
361 1 13 69.31792471332119 42.03209304818974 0
362 1 13 76.52764198073558 42.26462726204921 0
363 1 13 83.17488018982266 42.39157031366535 0
364 1 13 90.38614791318274 42.0293215923978 0
365 1 11 97.22001602165196 42.272120990797234 0
366 1 12 103.96570916034192 42.13496098504162 0
367 1 13 110.99096134780433 42.04730954554011 0
368 1 14 117.95090260087261 42.24026883460627 0
369 1 15 125.03575719500161 42.236353543868056 0
370 1 12 131.9118359778432 42.36151059554902 0
371 1 16 138.92203882830563 42.36498766874754 0
372 1 17 145.89099361747498 42.07379536086353 0
373 1 17 152.69805055217003 42.11179107916873 0
374 1 17 159.41553599145075 42.034217075760594 0
375 1 17 166.4556741857408 42.30497257484835 0
376 1 6 -3.377651993586275 44.24572557559701 0
377 1 14 3.7546974009396794 44.29209580791688 0
378 1 15 10.66519490546857 44.353649323463905 0
379 1 13 17.69433576503627 44.23174679223284 0
380 1 11 24.270148338187838 44.28234419175916 0
381 1 12 31.264192144013883 44.13682776964781 0
382 1 13 38.31929306738247 44.350542445610564 0
383 1 13 45.41692312181793 44.354555042236136 0
384 1 13 52.22121724030611 44.166373135828394 0
385 1 13 59.26148089066609 44.37445597765382 0
386 1 13 66.15461311900498 44.142273174847425 0
387 1 13 72.88232642831017 44.16158633579067 0
388 1 13 79.92188878967163 44.028544167245485 0
389 1 13 86.91615598351872 44.13581486689675 0
390 1 12 93.83075460787992 44.38096609086064 0
391 1 11 100.74004414812104 44.26681616115807 0
392 1 13 107.42217209264054 44.37769333937162 0
393 1 15 114.42321932523976 44.34193856502424 0
394 1 14 121.40422803995028 44.11513131739468 0
395 1 19 128.22465984902027 44.17201071348706 0
396 1 11 135.11486724191533 44.34240498221079 0
397 1 18 142.14991196192372 44.05936261613494 0
398 1 17 149.146710783328 44.075273341243516 0
399 1 18 156.18960513867057 44.34802699942044 0
400 1 17 162.98081679172273 44.19799536395089 0
401 1 21 -3.125668887798036 48.02793710708553 0
402 1 15 3.664646429605707 48.14312436663972 0
403 1 14 10.634428635401385 48.10791125302965 0
404 1 13 17.545657367579324 48.35926371610755 0
405 1 12 24.476169654412285 48.037947205730084 0
406 1 11 31.442267286939025 48.12745797004391 0
407 1 12 38.2994537936124 48.25951790699107 0
408 1 12 45.05395291350121 48.09351938849939 0
409 1 12 52.189088040791454 48.23449330930618 0
410 1 12 59.24165122420704 48.03969331049675 0
411 1 12 66.06910576397868 48.2419653740269 0
412 1 12 73.03214828675156 48.11686265161212 0
413 1 12 79.97012318392335 48.31356314567094 0
414 1 12 86.6713754377809 48.339851343053375 0
415 1 11 93.61521618791686 48.262585682527444 0
416 1 12 100.63206664053968 48.28903809915339 0
417 1 13 107.428283247715 48.19799970110211 0
418 1 14 114.65271196010973 48.17709855988503 0
419 1 15 121.6377015202974 48.15492560254346 0
420 1 12 128.3145898587466 48.23891932753527 0
421 1 16 135.40795323392774 48.129372742060106 0
422 1 17 142.09865321375887 48.382979312419636 0
423 1 18 148.9824541949635 48.38072636259817 0
424 1 11 156.26476004610092 48.356500212297476 0
425 1 18 163.19193460170328 48.224044773056534 0
426 1 19 0.1770879245273126 50.198281314859514 0
427 1 14 7.139041256828684 50.364318002082975 0
428 1 15 14.01683649368709 50.281423471880636 0
429 1 13 20.975131145070307 50.35330682358346 0
430 1 11 27.754669684202184 50.08099737433674 0
431 1 11 35.030484324623266 50.278371072476524 0
432 1 11 41.816474604469846 50.07582215361919 0
433 1 11 48.54751130401002 50.1016554704254 0
434 1 11 55.73304297439739 50.07127479219873 0
435 1 11 62.680157628535575 50.225914812645605 0
436 1 11 69.52874810370506 50.115506406020124 0
437 1 11 76.37161206279629 50.12412518102392 0
438 1 11 83.29684086930322 50.36701876942202 0
439 1 11 90.14062832834992 50.2628726637557 0
440 1 11 97.37223317376193 50.17936479886076 0
441 1 13 104.04600800534917 50.22371174003104 0
442 1 15 111.10535109231577 50.12037122853828 0
443 1 14 117.9513638320403 50.389779714145426 0
444 1 19 125.01591543254729 50.22118187028573 0
445 1 11 131.7537846658993 50.216223839334944 0
446 1 18 138.62969207026777 50.312084805998744 0
447 1 17 145.67518610133988 50.28182240674501 0
448 1 11 152.8153202137094 50.09190001861587 0
449 1 11 159.69769225198777 50.19683319997819 0
450 1 17 166.6615644431208 50.091116904867775 0
451 1 19 0.30339953576674283 54.34176039568237 0
452 1 14 7.127011442484629 54.300709891012104 0
453 1 15 14.019488684343408 54.13763006456135 0
454 1 13 20.846733459665803 54.03224484151503 0
455 1 11 28.020281388897626 54.33353540766884 0
456 1 11 34.812230776976804 54.018554290288385 0
457 1 11 41.70177705597626 54.06690935936366 0
458 1 11 48.64632838739309 54.05532656027675 0
459 1 11 55.512518833418 54.265620655711544 0
460 1 11 62.479200802689014 54.07808246736896 0
461 1 11 69.35086914663957 54.291965121668994 0
462 1 11 76.54920231723473 54.08402005841681 0
463 1 11 83.20430457515853 54.10769034482669 0
464 1 11 90.36670131229177 54.1189047318984 0
465 1 11 97.1364745773852 54.1363859763012 0
466 1 13 104.0940285683887 54.340307842251576 0
467 1 15 111.12621913488954 54.15214506236891 0
468 1 14 118.07736911995303 54.1043378452039 0
469 1 19 125.061309226632 54.167533141506254 0
470 1 11 131.7094899128559 54.27947442001235 0
471 1 18 138.70808065639264 54.15326422554168 0
472 1 17 145.49299630007943 54.301549274146126 0
473 1 11 152.45543606942832 54.014667542614866 0
474 1 11 159.37854257746966 54.10372313061845 0
475 1 17 166.50427183787122 54.356280746037214 0
476 1 21 -3.1531576065072 56.26532456841814 0
477 1 15 3.4827356140977908 56.281131899498256 0
478 1 14 10.582517406533286 56.11675757545614 0
479 1 13 17.418167127393072 56.31221100252797 0
480 1 12 24.3684100872295 56.206614429236396 0
481 1 11 31.470446403785346 56.08094059087356 0
482 1 12 38.49146736911979 56.151508727715445 0
483 1 12 45.25052252210865 56.31105842837595 0
484 1 12 52.07778955958442 56.07840239937066 0
485 1 12 59.19686434221303 56.127446978029454 0
486 1 12 66.01198971222563 56.23307800280754 0
487 1 12 72.97603814599061 56.237559361103656 0
488 1 12 79.92291096904871 56.001341090070596 0
489 1 12 86.80807549912271 56.39869585042386 0
490 1 11 93.57801069976749 56.02631015102765 0
491 1 12 100.5883844727687 56.21272190186852 0
492 1 13 107.63268222178968 56.36584739512552 0
493 1 14 114.36753849120687 56.228972628489124 0
494 1 15 121.29071393756159 56.00392308404146 0
495 1 12 128.47949628914182 56.218983478725924 0
496 1 16 135.2754674052266 56.12182070800398 0
497 1 17 142.04254321141875 56.032309069044054 0
498 1 18 149.04353661099628 56.15709202837645 0
499 1 11 155.91358227295794 56.21287030018243 0
500 1 18 162.8781853273695 56.19625679466253 0
501 1 6 -3.077587148514897 60.34232031548558 0
502 1 14 3.7406453016350665 60.35440884649608 0
503 1 15 10.479965536706116 60.35874564152298 0
504 1 13 17.513251754322845 60.074591493996834 0
505 1 11 24.392914990078015 60.04227231005949 0
506 1 12 31.266777858194796 60.17958592044074 0
507 1 13 38.44567454469034 60.06511732952341 0
508 1 13 45.35532527109127 60.15858041462444 0
509 1 13 52.22120460692192 60.20414216539275 0
510 1 13 58.94748085618272 60.175552512793644 0
511 1 13 66.0693815910147 60.104278506733515 0
512 1 13 72.86871353159465 60.08670709715212 0
513 1 13 79.96982129589779 60.2018349801432 0
514 1 13 86.71310600426631 60.386999163779954 0
515 1 12 93.71844275774829 60.23083171454827 0
516 1 11 100.48215142453738 60.17239880734859 0
517 1 13 107.42801472868773 60.3767752938286 0
518 1 15 114.4415232611528 60.087325835527224 0
519 1 14 121.63729776584665 60.10697920635527 0
520 1 19 128.3504221684527 60.234926839251905 0
521 1 11 135.34353682043505 60.17025187707755 0
522 1 18 142.35438263888588 60.271223731184726 0
523 1 17 149.3277980314867 60.15075224242417 0
524 1 18 156.2387501137058 60.13275498062932 0
525 1 17 163.0149024668006 60.323678508085806 0
526 1 15 0.34559204611240135 62.14658251283327 0
527 1 14 7.1337853457901454 62.059493036608295 0
528 1 13 14.136980161554165 62.326943623347425 0
529 1 12 21.09081432591027 62.384825631944395 0
530 1 11 27.718051795964993 62.25049989913424 0
531 1 13 34.76224796103481 62.01073656415872 0
532 1 13 41.9669712543263 62.08910235332568 0
533 1 13 48.54525842572122 62.16196341820515 0
534 1 13 55.74848070976395 62.04879788136199 0
535 1 13 62.607924186119554 62.257669593849364 0
536 1 13 69.53862458805636 62.32539365614937 0
537 1 13 76.35014141426579 62.195980295066924 0
538 1 13 83.30360660197178 62.29838003682993 0
539 1 13 90.32078982719062 62.199636022789974 0
540 1 11 97.31733264432644 62.21704161688343 0
541 1 12 104.29234973361876 62.18211462802743 0
542 1 13 111.18878317128528 62.03018616086932 0
543 1 14 117.93943772841438 62.35197774966958 0
544 1 15 125.03701098735385 62.244427141977454 0
545 1 12 131.90377852520447 62.22385569760226 0