
14309 atoms
14896 bonds
16659 angles
14 atom types
4 bond types
9 angle types

-5.680607966083864 171.52447279080386 xlo xhi
-2.0 148.0 ylo yhi
-4 4 zlo zhi


Masses

1 0.0002531372877101983
2 0.0005257466744750273
3 0.0004868024763657659
4 0.00040891408014724336
5 0.0005062745754203966
6 0.0007788839621852256
7 0.0007399397640759642
8 0.0005841629716389191
9 0.00035049778298335146
10 0.0002726093867648289
11 0.0005062745754203966
12 0.0005452187735296578
13 0.00046733037731113526
14 0.00035049778298335146

Pair Coeffs

1 0.40509979849834776 0.44544935907016964 0.5
2 0.40509979849834776 0.44544935907016964 0.5
3 0.40509979849834776 0.44544935907016964 0.5
4 0.40509979849834776 0.44544935907016964 0.5
5 0.40509979849834776 0.44544935907016964 0.5
6 0.40509979849834776 0.44544935907016964 0.5
7 0.40509979849834776 0.44544935907016964 0.5
8 0.40509979849834776 0.44544935907016964 0.5
9 0.40509979849834776 0.44544935907016964 0.5
10 0.40509979849834776 0.44544935907016964 0.5
11 0.40509979849834776 0.44544935907016964 0.5
12 0.40509979849834776 0.44544935907016964 0.5
13 0.40509979849834776 0.44544935907016964 0.5
14 0.40509979849834776 0.44544935907016964 0.5

Bond Coeffs

1 101.25491508407931 0.5
2 109.04375470593158 0.5
3 93.46607546222705 0.5
4 70.09955659667028 0.5

Angle Coeffs

1 8.651015602816853 180
2 10.804909792503162 180
3 6.80425806175126 180
4 2.8705463698013127 180
5 9.608737832070208 120
6 7.617301891295551 120
7 4.037691597083166 120
8 8.651015602816853 120
9 2.8705463698013127 120

Atoms

1 1 1 -3.4585439670017353 0.1208402737751495 0
2 1 2 3.607190014215014 0.18173520797045328 0
3 1 3 10.58476582830775 0.25915341063243624 0
4 1 2 17.50647209839455 0.11099658550852527 0
5 1 4 24.556020293095237 0.2462770374512936 0
6 1 4 31.374392303579043 0.35638200997083824 0
7 1 2 38.2885383594621 0.09396585265573294 0
8 1 3 45.40778205505924 0.18328495629828617 0
9 1 2 52.23497063333817 0.18368154575654155 0
10 1 5 59.17750953388665 0.0790279186514975 0
11 1 5 65.87303471209347 0.03582188732517251 0
12 1 5 73.11517201020764 0.22718807533299842 0
13 1 5 79.8806278658782 0.2110954660252891 0
14 1 2 86.9136163464151 0.25469272251012715 0
15 1 3 93.57750837895209 0.0921747826047466 0
16 1 2 100.47620095453377 0.2986618360824316 0
17 1 4 107.43906494292156 0.02641506063028172 0
18 1 4 114.4513468236746 0.0801359777001684 0
19 1 2 121.64064770628839 0.3314517475737964 0
20 1 3 128.5203066319874 0.11491925476295127 0
21 1 2 135.11754594403988 0.30636343056370263 0
22 1 5 142.18550072649862 0.193944281723119 0
23 1 5 149.2622091964383 0.2935634009293209 0
24 1 5 156.19717571339118 0.24414827501181247 0
25 1 5 163.13758065769204 0.395399309384067 0
26 1 6 0.35258678557391276 2.326642048874957 0
27 1 7 7.137491857002157 2.0056819986848557 0
28 1 6 13.994433055941485 2.2508421719527725 0
29 1 7 20.90875452172065 2.090804529362905 0
30 1 8 27.82410166252255 2.394111893983359 0
31 1 7 34.9534243896966 2.2204621825666955 0
32 1 6 41.645860480858346 2.2973467673535954 0
33 1 7 48.66220210909174 2.2254747683247404 0
34 1 6 55.7876008565534 2.1775579730380894 0
35 1 7 62.48485308491575 2.360473686026143 0
36 1 7 69.42864258973077 2.158317649870967 0
37 1 7 76.4569779537812 2.0366856478252227 0
38 1 6 83.20596187988235 2.0787766846928504 0
39 1 7 90.24058948125749 2.236745302505426 0
40 1 6 97.14264640700841 2.259013937375908 0
41 1 7 104.19807270557072 2.0839794676191556 0
42 1 8 111.0513585348799 2.3530495674795815 0
43 1 7 117.81384775518384 2.189226954557208 0
44 1 6 124.82615341905547 2.266673661328271 0
45 1 7 131.70695040059132 2.32604649348938 0
46 1 6 138.87953376257937 2.0777876150745023 0
47 1 7 145.54769322230544 2.0566988652792664 0
48 1 7 152.49327890116606 2.144403814031508 0
49 1 7 159.62415870748433 2.072261380464177 0
50 1 6 166.33147547199172 2.023572419661246 0
51 1 7 0.04192575040159566 6.066621412241587 0
52 1 6 7.063506288083703 6.144531727929736 0
53 1 7 14.053818165897487 6.2000135911123895 0
54 1 6 21.089337287605282 6.284469273467431 0
55 1 7 28.045029744041592 6.311661632580448 0
56 1 6 34.852791859702805 6.208655921006824 0
57 1 7 41.882885450896765 6.027249867490509 0
58 1 6 48.543708220578274 6.181117697245026 0
59 1 7 55.81824446534912 6.261221002744248 0
60 1 7 62.63531918175651 6.340425497571288 0
61 1 7 69.32885778055791 6.050978194332667 0
62 1 7 76.41204413555278 6.394422223845754 0
63 1 7 83.19426295537357 6.156045759957932 0
64 1 6 90.43792761900572 6.389731521573736 0
65 1 7 97.36452251168713 6.26356620209888 0
66 1 6 104.11103899854689 6.289999650645566 0
67 1 7 110.8635189439992 6.153377750301173 0
68 1 6 117.83190051406638 6.0695984579706685 0
69 1 7 124.85447667293923 6.19176189811405 0
70 1 6 131.7693640587246 6.343370775438563 0
71 1 7 138.93356606226374 6.140745418825906 0
72 1 7 145.6940787671669 6.393185182540389 0
73 1 7 152.68937309738533 6.001285309946977 0
74 1 7 159.38598131303044 6.084441415929077 0
75 1 7 166.28297464148008 6.350613003589429 0
76 1 3 -3.3205753809054546 8.28880423420254 0
77 1 6 3.6016814148044474 8.326667556833526 0
78 1 7 10.723786827896848 8.1057249199899 0
79 1 6 17.50179464168897 8.247484721974619 0
80 1 6 24.553327045303885 8.217663608601274 0
81 1 6 31.23686692183679 8.15463540083961 0
82 1 6 38.227395509574116 8.228012173215864 0
83 1 7 45.14174467313472 8.122611637151369 0
84 1 6 52.24908005782442 8.04612642276672 0
85 1 7 59.141927734885954 8.364957011067576 0
86 1 6 65.993600657535 8.124437080314259 0
87 1 6 73.02793258668146 8.367605422396256 0
88 1 7 79.78311283746874 8.102532254621474 0
89 1 6 86.64041258007403 8.059113495281823 0
90 1 7 93.5910080817406 8.230823488517924 0
91 1 6 100.83304516477655 8.088978795098022 0
92 1 6 107.75310118262024 8.283071165287748 0
93 1 6 114.46790845351786 8.329575094155008 0
94 1 6 121.4799964458457 8.134859675681763 0
95 1 7 128.37870251139367 8.3779494443289 0
96 1 6 135.13303787735825 8.064666300171368 0
97 1 7 142.2755226154054 8.195191452142279 0
98 1 6 149.1124866783068 8.230814379740599 0
99 1 6 156.04458215712637 8.374720898560291 0
100 1 7 163.09274317993317 8.00864906618526 0
101 1 5 -3.204399154919207 12.207908290001559 0
102 1 7 3.688186225015926 12.25965448953814 0
103 1 6 10.523935094246994 12.379522664343968 0
104 1 7 17.658149964371017 12.313333806101557 0
105 1 6 24.400455815837056 12.327959651069111 0
106 1 6 31.286810102787598 12.235915779214771 0
107 1 7 38.1254514851348 12.194118724350709 0
108 1 6 45.34938870677789 12.0924739977941 0
109 1 7 52.045505667911705 12.017126563762703 0
110 1 6 59.094742549764696 12.250025549762169 0
111 1 6 65.89083709291752 12.19973718781715 0
112 1 6 73.02049315749413 12.211503381613895 0
113 1 6 79.91360684755016 12.238924340400079 0
114 1 7 86.61461921833147 12.050368376800467 0
115 1 6 93.85579152227125 12.324206988787372 0
116 1 7 100.67792141276963 12.327592699073238 0
117 1 6 107.70963414087821 12.320889515173203 0
118 1 6 114.37631709148819 12.09877358730676 0
119 1 7 121.35931578965649 12.021892186280937 0
120 1 6 128.40703341551574 12.32811639333288 0
121 1 7 135.4252877118522 12.212173615018566 0
122 1 6 142.257967345994 12.039573253543507 0
123 1 6 149.23401611689562 12.36757658013102 0
124 1 6 156.0061122100226 12.294175118615444 0
125 1 6 163.10271541873777 12.275539240206813 0
126 1 7 0.09129612416090419 14.25848974631823 0
127 1 6 7.130588735323892 14.392585526515358 0
128 1 7 14.036599293130061 14.06649959641684 0
129 1 7 20.842890569636424 14.283555007502429 0
130 1 7 28.06197941113185 14.161515810578535 0
131 1 7 34.86269108415772 14.278733642008946 0
132 1 7 41.743719175645666 14.310835223616154 0
133 1 6 48.61840625180131 14.24888303303304 0
134 1 7 55.673684863725164 14.058543400655186 0
135 1 6 62.4846855771164 14.372006438881602 0
136 1 7 69.32842962676845 14.209514934451942 0
137 1 6 76.52017692162315 14.393762944156549 0
138 1 7 83.46885927528535 14.028363566048435 0
139 1 6 90.17130660112079 14.209666068609495 0
140 1 7 97.36987045268535 14.035861346675066 0
141 1 7 104.22421976625206 14.162569239699414 0
142 1 7 111.05920533573808 14.03563826778322 0
143 1 7 117.78470669054458 14.346250378658626 0
144 1 7 124.74671794016948 14.151927621770435 0
145 1 6 131.67942526760748 14.00392727464881 0
146 1 7 138.77785773214444 14.104828788594007 0
147 1 6 145.80801569503348 14.277476620287414 0
148 1 7 152.62099537509113 14.041709573463523 0
149 1 6 159.3935662293499 14.272172415948553 0
150 1 7 166.6307922308941 14.278270821307007 0
151 1 6 0.13347452875669533 18.371042961662493 0
152 1 7 7.223454003375814 18.320362993911044 0
153 1 6 13.870239478813216 18.071856477388586 0
154 1 7 21.075887887306813 18.0403162477999 0
155 1 7 28.092480867983557 18.039667400118944 0
156 1 7 34.74783853806571 18.21813930876106 0
157 1 6 41.817918544012905 18.255073840568087 0
158 1 7 48.697097540952534 18.310628623066936 0
159 1 6 55.626963815247024 18.16883623963576 0
160 1 7 62.45532880633972 18.23483676697434 0
161 1 8 69.52388007344 18.32436831982176 0
162 1 7 76.2682295912692 18.284718193218612 0
163 1 6 83.46666725351119 18.080005140880466 0
164 1 7 90.44685822567928 18.371861251277593 0
165 1 6 97.20326455836118 18.18204353412065 0
166 1 7 104.04424629476779 18.079552664719706 0
167 1 7 111.11360177144225 18.08297447615384 0
168 1 7 118.15975860996073 18.309959496952448 0
169 1 6 124.99677318483529 18.197553851768937 0
170 1 7 131.82799875272303 18.378935915800565 0
171 1 6 138.8867472958752 18.192777264292985 0
172 1 7 145.66285327532933 18.285846010166953 0
173 1 8 152.43538941626505 18.048947534460932 0
174 1 7 159.57845956889662 18.14265432285519 0
175 1 6 166.41081548110466 18.2471678059948 0
176 1 2 -3.358893038610183 20.23289251536498 0
177 1 7 3.8494114737583627 20.017990623127123 0
178 1 6 10.681124194741447 20.10721531698286 0
179 1 6 17.68367971254138 20.120757754491237 0
180 1 6 24.558551827262036 20.20617553587096 0
181 1 6 31.3867291704821 20.363579364137337 0
182 1 6 38.405321405152876 20.238123206357166 0
183 1 6 45.24563669389813 20.33792590761489 0
184 1 7 52.30848586420057 20.306862002738423 0
185 1 6 59.19598751775519 20.154250245588003 0
186 1 8 65.90217950765411 20.302267102711376 0
187 1 8 72.78101060574387 20.276116836768797 0
188 1 6 79.71979550042263 20.196072285658733 0
189 1 7 86.88362768098585 20.385060108289984 0
190 1 6 93.7271748475315 20.08430926406577 0
191 1 6 100.62678449364797 20.047192898713636 0
192 1 6 107.56058427407174 20.39100684985225 0
193 1 6 114.62600111841483 20.20512070077968 0
194 1 6 121.62250711466663 20.283870174075282 0
195 1 6 128.32806292766907 20.395888019329718 0
196 1 7 135.433168969899 20.1810590426735 0
197 1 6 142.26386136013784 20.000665596802207 0
198 1 8 149.03371369777955 20.085639498017475 0
199 1 8 155.92784072260838 20.354140928351306 0
200 1 6 162.9669881097182 20.079103959393944 0
201 1 2 -3.4016277309178466 24.052425703637656 0
202 1 7 3.5669627850331955 24.12187670600192 0
203 1 6 10.518397114961576 24.053748760693995 0
204 1 6 17.408880892226087 24.21137696041988 0
205 1 6 24.310346522748954 24.201091881045496 0
206 1 6 31.5657827446441 24.305882969117476 0
207 1 6 38.40455549335552 24.31165524214079 0
208 1 6 45.36814297638381 24.101429273309435 0
209 1 7 52.113022752478614 24.297369965566592 0
210 1 6 59.23698888616997 24.189755379221985 0
211 1 8 65.82870465144266 24.05769057302766 0
212 1 8 72.98465930682762 24.3890955548627 0
213 1 6 79.86192701176984 24.056559830746437 0
214 1 7 86.84704173761797 24.336244045577676 0
215 1 6 93.80157535907296 24.197866874075153 0
216 1 6 100.7554274748636 24.266139782764313 0
217 1 6 107.48992059819506 24.122998688543447 0
218 1 6 114.54541865312075 24.265392521618825 0
219 1 6 121.28125880652433 24.34476003287037 0
220 1 6 128.27986068911304 24.238451021649524 0
221 1 7 135.3002939678338 24.103112775756983 0
222 1 6 142.09648640728764 24.38448590999809 0
223 1 8 149.28248596494504 24.13460635005923 0
224 1 8 156.20061359971152 24.367489322861296 0
225 1 6 163.06928849361583 24.2311731322367 0
226 1 6 0.24379392272403783 26.289143441465843 0
227 1 7 7.202473599828116 26.119561375452474 0
228 1 6 13.912265902308526 26.20584953842754 0
229 1 7 21.13756847300725 26.118882356361873 0
230 1 7 27.970928830587457 26.134134700719848 0
231 1 7 34.74747095409055 26.010550602319373 0
232 1 6 41.57465319178977 26.042588179237434 0
233 1 7 48.78518735923489 26.27972808249004 0
234 1 6 55.71914265725228 26.308154471932028 0
235 1 7 62.446514419255706 26.277694007477248 0
236 1 8 69.44526649539985 26.37505044143879 0
237 1 7 76.3464672332962 26.082940403890102 0
238 1 6 83.30660644902963 26.286720635019737 0
239 1 7 90.11382598796352 26.335072120208334 0
240 1 6 97.11814312562082 26.00766696352013 0
241 1 7 104.03519772647894 26.268733080881802 0
242 1 7 111.20790094774458 26.14270060814852 0
243 1 7 117.93612458569426 26.288658957846973 0
244 1 6 125.09989798472473 26.125120272018652 0
245 1 7 131.64209155077748 26.18469821053787 0
246 1 6 138.57943010274863 26.393493373912634 0
247 1 7 145.67886628484297 26.01766024729187 0
248 1 8 152.7242787879777 26.111162148703663 0
249 1 7 159.38200321302403 26.081888640852508 0
250 1 6 166.4332258294083 26.230125400130493 0
251 1 7 0.32855303804523683 30.019067485691703 0
252 1 6 7.24200508267555 30.382763886630936 0
253 1 7 14.221543475963685 30.094675055333905 0
254 1 7 20.792037978545903 30.303690510171286 0
255 1 7 27.742729945548138 30.133261280759555 0
256 1 7 34.65695794003483 30.053004774211804 0
257 1 7 41.78147037662544 30.31117642574773 0
258 1 6 48.801097821550655 30.00927342700189 0
259 1 7 55.776600666447045 30.3356940553923 0
260 1 6 62.36489113378628 30.12543237624904 0
261 1 7 69.39584781470202 30.246031562470744 0
262 1 6 76.27181284720689 30.040409239816793 0
263 1 7 83.2620599488267 30.027615808235897 0
264 1 6 90.42990260676542 30.02256159311126 0
265 1 7 97.320678412463 30.244725461726027 0
266 1 7 104.27280573849617 30.332938737582275 0
267 1 7 111.15039304738745 30.117867780831116 0
268 1 7 117.99511067015544 30.126048815791314 0
269 1 7 124.90283718587752 30.069738333856943 0
270 1 6 131.85063803640412 30.234627519396813 0
271 1 7 138.648948500842 30.096445308709786 0
272 1 6 145.6471742701557 30.368840167100505 0
273 1 7 152.4506371238345 30.163127414798236 0
274 1 6 159.6217606095494 30.269914745546604 0
275 1 7 166.43238636345183 30.358659178655987 0
276 1 5 -3.3660703659635285 32.2681888835311 0
277 1 7 3.576864689816881 32.01385530474416 0
278 1 6 10.590307949139351 32.36446120319993 0
279 1 7 17.534509250794382 32.249504522469984 0
280 1 6 24.42622111052686 32.29047542927528 0
281 1 6 31.464489804519097 32.14720864793331 0
282 1 7 38.41296490027054 32.09481281531165 0
283 1 6 45.40677937401134 32.303880365188505 0
284 1 7 51.97197853906457 32.36873711185809 0
285 1 6 59.25576527438023 32.10934648094407 0
286 1 6 65.9608983842624 32.275765647224326 0
287 1 6 73.12116191264204 32.29948930841776 0
288 1 6 79.91438023555693 32.08989023710325 0
289 1 7 86.7319219793323 32.13414751305995 0
290 1 6 93.60479934368934 32.139405057173924 0
291 1 7 100.52385426152108 32.08491083396237 0
292 1 6 107.49731742039133 32.18174109598931 0
293 1 6 114.35876937357605 32.01499474395683 0
294 1 7 121.59487715909273 32.26246627965376 0
295 1 6 128.52705654971712 32.056866084795715 0
296 1 7 135.1200117255356 32.35965494570766 0
297 1 6 142.40474379340367 32.15639223096893 0
298 1 6 149.23689942025507 32.10502093853287 0
299 1 6 156.2719710744011 32.36948655138825 0
300 1 6 163.0033606680086 32.36075722073001 0
301 1 3 -3.190094499864223 36.093153994193734 0
302 1 6 3.504134636889531 36.225026172933994 0
303 1 7 10.505048092929412 36.13817222965969 0
304 1 6 17.463931101854506 36.3596798709179 0
305 1 6 24.37936854045056 36.07069424299826 0
306 1 6 31.561546341315353 36.077425843859274 0
307 1 6 38.162038890978295 36.01667533763426 0
308 1 7 45.36528041787404 36.241435456646784 0
309 1 6 52.25708966150837 36.306594136191016 0
310 1 7 59.04228124034617 36.085898481987435 0
311 1 6 65.8417266532157 36.384370010208364 0
312 1 6 72.92798275125331 36.25940987786279 0
313 1 7 79.72880265414084 36.23092697864859 0
314 1 6 86.92989729577846 36.10044672100596 0
315 1 7 93.83062029666627 36.361345953406136 0
316 1 6 100.54249989376446 36.13226221474865 0
317 1 6 107.77358156516759 36.053415026565474 0
318 1 6 114.50339619395965 36.187696230471346 0
319 1 6 121.37511524094955 36.27240040906983 0
320 1 7 128.47975812449178 36.270599524122765 0
321 1 6 135.3567482550957 36.307834859053585 0
322 1 7 142.30524452250162 36.15135250727967 0
323 1 6 149.12469942015798 36.16919286069281 0
324 1 6 156.24052964023355 36.36620527451643 0
325 1 7 162.95794216310924 36.126420724586936 0
326 1 7 0.2170822247399868 38.08914110698714 0
327 1 6 7.125107661952706 38.38619384654418 0
328 1 7 14.114203138421935 38.20348975876744 0
329 1 6 20.991144818957647 38.07467947789793 0
330 1 7 27.874815975939665 38.10125628739312 0
331 1 6 34.8097082685346 38.156316980674646 0
332 1 7 41.62876830296068 38.39131496885716 0
333 1 6 48.85460108009369 38.38872956212936 0
334 1 7 55.45979840071041 38.24670470731595 0
335 1 7 62.63171090298315 38.14273083317728 0
336 1 7 69.50330426314626 38.288979931164675 0
337 1 7 76.35180956656386 38.32949577223963 0
338 1 7 83.46857552749834 38.03223296798107 0
339 1 6 90.11682240440231 38.082612486919665 0
340 1 7 97.19182775786753 38.360620976746674 0
341 1 6 104.071889651591 38.053252740556815 0
342 1 7 110.90103975505734 38.39999160976223 0
343 1 6 118.08457339855728 38.20649751545158 0
344 1 7 124.80608869714933 38.340956377655935 0
345 1 6 131.93128345316921 38.39916960843573 0
346 1 7 138.92964786324333 38.33701190022044 0
347 1 7 145.55027733149365 38.11083471051582 0
348 1 7 152.50822195877214 38.00011313701261 0
349 1 7 159.49750093398296 38.33295730673846 0
350 1 7 166.6106065119272 38.379274308625966 0
351 1 6 0.20486412656406935 42.13295396613169 0
352 1 7 7.151085224995313 42.0687618992971 0
353 1 6 14.218839601531094 42.23039449254174 0
354 1 7 20.99577558612126 42.38856434351441 0
355 1 8 27.92851367441142 42.244919548626534 0
356 1 7 34.99920780242266 42.21247405008948 0
357 1 6 41.83264579706019 42.017558269943095 0
358 1 7 48.72675292765473 42.24203540539189 0
359 1 6 55.44269833831582 42.21425453867655 0
360 1 7 62.67301833095545 42.16434025217242 0
361 1 7 69.42655485991001 42.34383342560146 0
362 1 7 76.53245638658791 42.235448633593826 0
363 1 6 83.25184359674682 42.24549727334028 0
364 1 7 90.33885577820081 42.372291215101264 0
365 1 6 97.20340061696915 42.331610034965536 0
366 1 7 104.14750350441034 42.36232768240492 0
367 1 8 111.23717344048526 42.125470746455846 0
368 1 7 117.89488932384943 42.31847003505121 0
369 1 6 124.8146368231414 42.18918330524835 0
370 1 7 131.86135731509106 42.111389118287256 0
371 1 6 138.7555884230586 42.35045375391647 0
372 1 7 145.77386494925355 42.191709536741726 0
373 1 7 152.55822974319966 42.16701503176401 0
374 1 7 159.44812153982187 42.13655067283524 0
375 1 6 166.3364074029466 42.01077362891849 0
376 1 2 -3.254637130381426 44.331393651322394 0
377 1 6 3.4677061414080956 44.37047041017894 0
378 1 7 10.76790380440813 44.35149368337226 0
379 1 6 17.56562618338087 44.085276132159024 0
380 1 8 24.3636524052677 44.19962351255869 0
381 1 8 31.207075842573268 44.042908570563036 0
382 1 6 38.478556108558124 44.17247758568713 0
383 1 7 45.20853319190409 44.004549113675864 0
384 1 6 52.317744940943804 44.180827594205944 0
385 1 6 58.954456188760346 44.06922790421356 0
386 1 6 66.16107040261033 44.312224082950834 0
387 1 6 72.80645992350286 44.37871356556712 0
388 1 6 79.82464395877719 44.385137720603765 0
389 1 6 86.93461913678945 44.13079252198386 0
390 1 7 93.54798849583771 44.13630539919281 0
391 1 6 100.83209521813384 44.09443709211177 0
392 1 8 107.42544771734491 44.26908979941854 0
393 1 8 114.48530988573845 44.11260786217116 0
394 1 6 121.31547331439896 44.37652750997381 0
395 1 7 128.5674370890002 44.0015785463267 0
396 1 6 135.13972302488088 44.22491249412999 0
397 1 6 142.22974655010262 44.02252066988536 0
398 1 6 149.01582095151596 44.04710443714057 0
399 1 6 156.0336303931993 44.04052341368887 0
400 1 6 163.09024563119766 44.05945138258838 0
401 1 2 -3.2635964046735606 48.05933449460371 0
402 1 6 3.6790867238282083 48.152278853480325 0
403 1 7 10.505821377654994 48.0910032452836 0
404 1 6 17.707341736482306 48.32491142752311 0
405 1 8 24.294821964934464 48.21151185800308 0
406 1 8 31.324602273830923 48.33814891968599 0
407 1 6 38.252728527195416 48.10164363081053 0
408 1 7 45.21224342689182 48.16001858618962 0
409 1 6 52.16996340627954 48.33537336486444 0
410 1 6 59.1887009299278 48.17906099413067 0
411 1 6 65.94690056176293 48.2697962662616 0
412 1 6 72.93986344113284 48.30123021459979 0
413 1 6 79.96947513550944 48.07871697108364 0
414 1 6 86.62096275783567 48.25628561259288 0
415 1 7 93.74407270448259 48.2589672092429 0
416 1 6 100.53059961636795 48.39956803018526 0
417 1 8 107.56740771631745 48.297479629849576 0
418 1 8 114.36575993102105 48.098426018803636 0
419 1 6 121.24466326296076 48.2072007804876 0
420 1 7 128.26022232819253 48.14324129491725 0
421 1 6 135.4213112232354 48.369053017334366 0
422 1 6 142.3282826933264 48.38976125537096 0
423 1 6 149.282535448579 48.08748207913731 0
424 1 6 156.23488200790985 48.39278388512424 0
425 1 6 162.8390233024408 48.09740934431951 0
426 1 6 0.38559585390463647 50.21974245323664 0
427 1 7 7.178847740760726 50.369478035630834 0
428 1 6 14.071923728301837 50.03460513094784 0
429 1 7 20.8490049480652 50.10200484170356 0
430 1 8 27.952148742455066 50.041295470241906 0
431 1 7 34.860665351487896 50.12871515121592 0
432 1 6 41.66536281684519 50.101940018890396 0
433 1 7 48.69088742176766 50.31804289974068 0
434 1 6 55.657075492329795 50.269357648871406 0
435 1 7 62.54276853200823 50.25466577566899 0
436 1 7 69.65664999967943 50.18798137985354 0
437 1 7 76.4782736310964 50.34194658173348 0
438 1 6 83.17350794929793 50.39628930416104 0
439 1 7 90.35738654123533 50.24403244792673 0
440 1 6 97.29420251063424 50.10492231576753 0
441 1 7 103.99352132398289 50.30236524834363 0
442 1 8 111.09281858437154 50.13787952129512 0
443 1 7 117.7842702337532 50.095730210447165 0
444 1 6 124.79444247416961 50.24771296041813 0
445 1 7 131.7184505195994 50.07043067201712 0
446 1 6 138.74912328761997 50.20363200702563 0
447 1 7 145.4998123692427 50.106489849285275 0
448 1 7 152.75906676730241 50.36360960440748 0
449 1 7 159.60341647246045 50.03596974840769 0
450 1 6 166.37744969282383 50.1938289065021 0
451 1 7 0.17536601146544395 54.175838821465256 0
452 1 6 6.940181535791116 54.320768940897175 0
453 1 7 14.062708301965213 54.23270301568804 0
454 1 6 20.956443415342946 54.08823970890594 0
455 1 7 27.94968105086765 54.17035868910835 0
456 1 6 34.912516720528785 54.192181821285416 0
457 1 7 41.64924256857392 54.324691907868456 0
458 1 6 48.676884254146785 54.38364969542311 0
459 1 7 55.779845790307974 54.19407705463641 0
460 1 7 62.44917100176978 54.19398021052421 0
461 1 7 69.60067171350003 54.17134947296249 0
462 1 7 76.56489493530668 54.00069999445341 0
463 1 7 83.16896084701987 54.35430356446896 0
464 1 6 90.43480767341852 54.181751638158254 0
465 1 7 97.17338178369756 54.26344782410397 0
466 1 6 104.2304540390218 54.27770065292855 0
467 1 7 111.0419979226041 54.250007394464426 0
468 1 6 117.934432639999 54.01619301119416 0
469 1 7 125.10537267121516 54.33252442176755 0
470 1 6 131.70823539584939 54.029225138315155 0
471 1 7 138.61713830370044 54.35074693317454 0
472 1 7 145.80507805914255 54.332145048962154 0
473 1 7 152.54685293378134 54.32862316342279 0
474 1 7 159.58654517347273 54.0225525498443 0
475 1 7 166.51500066612485 54.284160730883364 0
476 1 3 -3.2717632714209204 56.02037054146233 0
477 1 6 3.7000519297371195 56.38739214651619 0
478 1 7 10.394555083520007 56.135712273829746 0
479 1 6 17.342897431558246 56.3267358242042 0
480 1 6 24.400481720865717 56.20191411371413 0
481 1 6 31.37099663669039 56.24908933358534 0
482 1 6 38.420723633110136 56.00191249910524 0
483 1 7 45.28392656250649 56.204688198917 0
484 1 6 51.97419953287278 56.225993608824176 0
485 1 7 58.93116474037921 56.222550175974995 0
486 1 6 66.17127978350646 56.066461740151965 0
487 1 6 72.78582997828399 56.044261193170556 0
488 1 7 79.70788131747774 56.08385876919293 0
489 1 6 86.76133587745878 56.15572374619636 0
490 1 7 93.68503787243462 56.034084364350356 0
491 1 6 100.47610189916767 56.31830319645736 0
492 1 6 107.62128536443119 56.24111337104749 0
493 1 6 114.5454138888137 56.14748209734685 0
494 1 6 121.57307502096546 56.12427223647704 0
495 1 7 128.20584365140863 56.2826669489798 0
496 1 6 135.3958184716444 56.279104547977795 0
497 1 7 142.0634388357474 56.05245172058942 0
498 1 6 149.20839093946347 56.34610348041701 0
499 1 6 156.0837769823142 56.00536683071373 0
500 1 7 163.16910673041173 56.36332377287608 0
501 1 5 -3.210327835792307 60.350277015483385 0
502 1 7 3.8126407464096568 60.214209540118986 0
503 1 6 10.779023548812217 60.309297307120005 0
504 1 7 17.416809161703213 60.26501418559192 0
505 1 6 24.63407553699418 60.319530040333525 0
506 1 6 31.517761532097232 60.232944119971066 0
507 1 7 38.317583699817945 60.1524347966364 0
508 1 6 45.22379802713294 60.34918520755846 0
509 1 7 52.33144269731364 60.370661610226804 0
510 1 6 59.01069831803826 60.217956386805454 0
511 1 6 66.00533268572055 60.386301188419466 0
512 1 6 72.82581725590306 60.351058854038996 0
513 1 6 79.85473191626667 60.12528145310454 0
514 1 7 86.67390027464646 60.27859680738128 0
515 1 6 93.84024413535846 60.08913845416521 0
516 1 7 100.70083424828861 60.2777137836068 0
517 1 6 107.57615103145484 60.04951078454017 0
518 1 6 114.41911144234324 60.35679653569065 0
519 1 7 121.59451796040328 60.36675921027631 0
520 1 6 128.51605618139402 60.23926333449613 0
521 1 7 135.42230635601692 60.21084188914895 0
522 1 6 142.03285988657862 60.08226489098442 0
523 1 6 149.16766532469381 60.20086621934935 0
524 1 6 155.96265649053905 60.29165021772839 0
525 1 6 163.00175142694974 60.01992823579887 0
526 1 7 0.3333176305709061 62.213147027018096 0
527 1 6 6.936351447001742 62.34514424517397 0
528 1 7 14.007754131411383 62.142507147770694 0
529 1 7 21.08247606007908 62.134991547332405 0
530 1 7 27.838940312802887 62.174064585788834 0
531 1 7 35.009766228390006 62.05149296746225 0
532 1 7 41.587088098892806 62.26362492761847 0
533 1 6 48.55779811051843 62.1911298038486 0
534 1 7 55.469377790454665 62.183256299908194 0
535 1 6 62.51298534542472 62.155180269640155 0
536 1 7 69.37908541718647 62.206322301044025 0
537 1 6 76.4166532453988 62.35432757444997 0
538 1 7 83.17617382252308 62.02250197595982 0
539 1 6 90.22014914062962 62.30352870698251 0
540 1 7 97.19480991067968 62.05113152005834 0
541 1 7 104.18793201824609 62.27996857318496 0
542 1 7 110.90836601277185 62.3426822501189 0
543 1 7 117.85653216131054 62.128779618773756 0
544 1 7 124.88047073620312 62.03635977302658 0
545 1 6 131.78138351224894 62.322758047041205 0
546 1 7 138.6236102147644 62.087073852446984 0
547 1 6 145.8851747996662 62.0663948140424 0
548 1 7 152.71723267639976 62.2975642682072 0
549 1 6 159.713754349421 62.24192276864462 0
550 1 7 166.29096315950628 62.118277267535454 0
551 1 6 0.1233570980783743 66.0562592641626 0
552 1 7 7.275709520026126 66.14090640707946 0
553 1 6 14.245777246670988 66.22432362304787 0
554 1 7 21.086801786081416 66.12942694733033 0
555 1 7 27.794522218627243 66.12827878535701 0
556 1 7 34.80341890814656 66.26761805476326 0
557 1 6 41.722618139449686 66.30596588863 0
558 1 7 48.59702069667524 66.13012119220124 0
559 1 6 55.82388838964869 66.29570026311066 0
560 1 7 62.506242174887184 66.11537107891175 0
561 1 8 69.38870929696179 66.08118334494732 0
562 1 7 76.27048331204554 66.18140861055909 0
563 1 6 83.26800239116659 66.04776045995717 0
564 1 7 90.32165932196705 66.01779165925997 0
565 1 6 97.06646995298898 66.17006959243241 0
566 1 7 103.92977487013843 66.18852948537696 0
567 1 7 111.197246378747 66.35555471020528 0
568 1 7 117.85961792982575 66.15695429133707 0
569 1 6 124.79817809644378 66.1208865949862 0
570 1 7 132.0250243030787 66.08628176050905 0
571 1 6 138.88021780165127 66.08299735873206 0
572 1 7 145.7314156981983 66.36344896686859 0
573 1 8 152.54397068287818 66.07288994279796 0
574 1 7 159.66051282971625 66.19205103935754 0
575 1 6 166.5769929856216 66.10405206034905 0
576 1 2 -3.1042107596416164 68.24166262142526 0
577 1 7 3.8204538302239226 68.28444323207042 0
578 1 6 10.61119994387105 68.20263651312766 0
579 1 6 17.513346900228925 68.22131276178106 0
580 1 6 24.597959704055743 68.1484046672426 0
581 1 6 31.53223632998656 68.15541266955515 0
582 1 6 38.42732432765344 68.26312997068847 0
583 1 6 45.292434518561244 68.21938751593093 0
584 1 7 52.33018846207314 68.09072332897928 0
585 1 6 59.16915206008676 68.10109202791462 0
586 1 8 65.9906937978882 68.1524243838639 0
587 1 8 73.02439796259843 68.10937573826033 0
588 1 6 79.82269139647876 68.0651176642265 0
589 1 7 86.93561365090487 68.06026804819274 0
590 1 6 93.6729230265475 68.2374974135494 0
591 1 6 100.62190343608893 68.09055919290616 0
592 1 6 107.69639557519396 68.3281245126594 0
593 1 6 114.56098066735845 68.19491644193693 0
594 1 6 121.31378189341395 68.03673366313957 0
595 1 6 128.32865269202253 68.15694878506494 0
596 1 7 135.24389749599158 68.03069669124307 0