
14309 atoms
14896 bonds
16659 angles
27 atom types
6 bond types
16 angle types

-5.680607966083864 171.52447279080386 xlo xhi
-2.0 148.0 ylo yhi
-4 4 zlo zhi


Masses

1 0.00024511217948717953
2 0.00045825320512820516
3 0.0005435096153846154
4 0.0005008814102564103
5 0.0004475961538461539
6 0.0004902243589743591
7 0.0007033653846153846
8 0.0007673076923076925
9 0.0007886217948717949
10 0.0007246794871794873
11 0.0006607371794871795
12 0.0007673076923076924
13 0.0008099358974358974
14 0.0007459935897435899
15 0.0007459935897435898
16 0.0005328525641025641
17 0.0005221955128205129
18 0.0005221955128205128
19 0.0004795673076923077
20 0.00042628205128205135
21 0.00021314102564102568
22 0.0004902243589743591
23 0.00042628205128205135
24 0.0005541666666666667
25 0.0005328525641025641
26 0.0005115384615384615
27 0.0004689102564102564

Pair Coeffs

1 0.40509979849834776 0.44544935907016964 0.5
2 0.40509979849834776 0.44544935907016964 0.5
3 0.40509979849834776 0.44544935907016964 0.5
4 0.40509979849834776 0.44544935907016964 0.5
5 0.40509979849834776 0.44544935907016964 0.5
6 0.40509979849834776 0.44544935907016964 0.5
7 0.40509979849834776 0.44544935907016964 0.5
8 0.40509979849834776 0.44544935907016964 0.5
9 0.40509979849834776 0.44544935907016964 0.5
10 0.40509979849834776 0.44544935907016964 0.5
11 0.40509979849834776 0.44544935907016964 0.5
12 0.40509979849834776 0.44544935907016964 0.5
13 0.40509979849834776 0.44544935907016964 0.5
14 0.40509979849834776 0.44544935907016964 0.5
15 0.40509979849834776 0.44544935907016964 0.5
16 0.40509979849834776 0.44544935907016964 0.5
17 0.40509979849834776 0.44544935907016964 0.5
18 0.40509979849834776 0.44544935907016964 0.5
19 0.40509979849834776 0.44544935907016964 0.5
20 0.40509979849834776 0.44544935907016964 0.5
21 0.40509979849834776 0.44544935907016964 0.5
22 0.40509979849834776 0.44544935907016964 0.5
23 0.40509979849834776 0.44544935907016964 0.5
24 0.40509979849834776 0.44544935907016964 0.5
25 0.40509979849834776 0.44544935907016964 0.5
26 0.40509979849834776 0.44544935907016964 0.5
27 0.40509979849834776 0.44544935907016964 0.5

Bond Coeffs

1 98.0448717948718 0.5
2 85.25641025641026 0.5
3 110.83333333333334 0.5
4 106.57051282051282 0.5
5 102.30769230769229 0.5
6 93.78205128205128 0.5

Angle Coeffs

1 7.854045318389328 180
2 5.164162287097446 180
3 11.34566454475309 180
4 10.086254466987198 180
5 8.923672432104382 180
6 6.8735000041267 180
7 6.231205687223146 120
8 10.678955965890609 120
9 8.354762993452661 120
10 5.897468901009609 120
11 7.854045318389328 120
12 9.282365633326215 120
13 9.46941368139027 120
14 10.086254466987198 120
15 7.331130795547627 120
16 5.164162287097446 120

Atoms

1 1 1 -3.0932713040597988 0.21056926211863855 0
2 1 2 3.861293209580568 0.3662659179742724 0
3 1 3 10.44200116697763 0.02161532259149475 0
4 1 4 17.702275436504454 0.3324499916686491 0
5 1 5 24.340028838353913 0.28172808451045356 0
6 1 5 31.410144846702494 0.022913148441650488 0
7 1 4 38.4134478080589 0.33996362225165183 0
8 1 3 45.37197040098649 0.33146617893406555 0
9 1 2 52.2123865895152 0.2857866507489183 0
10 1 6 59.14373013932846 0.12532094466250002 0
11 1 6 66.06132724540949 0.08527698803286571 0
12 1 6 73.04742835415246 0.14613938575910784 0
13 1 6 79.73828432412276 0.3174613911595927 0
14 1 2 86.8433405288242 0.29290940339958466 0
15 1 3 93.66687305177518 0.224317099037678 0
16 1 4 100.751273485572 0.04926799067259773 0
17 1 5 107.74859615663716 0.30245485792838506 0
18 1 5 114.4587166499579 0.12243453054222458 0
19 1 4 121.49069476565145 0.30711706767096786 0
20 1 3 128.38577814890633 0.2813458129965828 0
21 1 2 135.32211639802753 0.31225104012365135 0
22 1 6 142.31277293164672 0.24812903925939309 0
23 1 6 149.35302630953692 0.22620909514721596 0
24 1 6 156.15077597020263 0.36164963599987693 0
25 1 6 162.97056852586874 0.20200868789140297 0
26 1 7 0.31444579519610594 2.3781415409265776 0
27 1 8 7.033950312706503 2.320504560070831 0
28 1 9 14.082633069518158 2.090753495748225 0
29 1 10 20.998923473069883 2.117772213425283 0
30 1 11 27.760093105576807 2.1033923562834707 0
31 1 10 34.93691147453612 2.254987864330417 0
32 1 9 41.69033106923988 2.0909409971553883 0
33 1 8 48.67976211719346 2.329802151440477 0
34 1 7 55.68079672460144 2.1480379334901123 0
35 1 12 62.510252615849005 2.253078568547532 0
36 1 12 69.6211639854085 2.1038684681510773 0
37 1 12 76.30016893836066 2.3031253311569815 0
38 1 7 83.37115059235897 2.0036933284770972 0
39 1 8 90.42903984104827 2.15782430607071 0
40 1 9 97.28776205257232 2.2318115776582323 0
41 1 10 104.13391299759911 2.339716115522919 0
42 1 11 110.98313724271338 2.207354904985585 0
43 1 10 117.97292646735664 2.274323659648471 0
44 1 9 124.89253248715255 2.361043422262111 0
45 1 8 131.84326192064088 2.0229416884919087 0
46 1 7 138.69090028684363 2.1114824822322036 0
47 1 12 145.58497980803463 2.1428841290652354 0
48 1 12 152.48776212012007 2.376113230546345 0
49 1 12 159.67440201068018 2.0695302101249804 0
50 1 7 166.34204739673922 2.1045985171498884 0
51 1 8 0.15077340762955027 6.013093056393354 0
52 1 7 7.257479453849668 6.25069076772719 0
53 1 13 14.243615476810835 6.308139597759089 0
54 1 14 21.051869615884776 6.27261292863381 0
55 1 10 27.75400244523185 6.346320314183865 0
56 1 14 35.03190450982147 6.170218522302997 0
57 1 13 41.82407394429941 6.372387405711429 0
58 1 7 48.68776939734624 6.051626399728657 0
59 1 8 55.73642101973405 6.032107523563273 0
60 1 13 62.59572204891808 6.060956093665161 0
61 1 13 69.45912872705254 6.265530296449585 0
62 1 13 76.23246621401097 6.102037574075295 0
63 1 8 83.36776300552032 6.113041997144041 0
64 1 7 90.19364991392975 6.03364230307285 0
65 1 13 96.99535841027893 6.358550804977402 0
66 1 14 104.19969918199996 6.327352104496753 0
67 1 10 110.85594437311414 6.124583981775931 0
68 1 14 117.98353365971445 6.057703800521619 0
69 1 13 124.84307528924792 6.155655088221738 0
70 1 7 132.00050082271596 6.020372214703002 0
71 1 8 138.71961634872193 6.353637548768617 0
72 1 13 145.6453524273337 6.124976616251575 0
73 1 13 152.58166859686176 6.177914064073408 0
74 1 13 159.41023841062648 6.012187999427166 0
75 1 8 166.6042100812894 6.14394985084083 0
76 1 3 -3.0823305753314147 8.198416613717425 0
77 1 7 3.6224457241775325 8.032720126323545 0
78 1 8 10.661157834640608 8.250828331877052 0
79 1 9 17.6843879273907 8.041394470521682 0
80 1 15 24.496208610480508 8.14342255208898 0
81 1 15 31.34147630144952 8.266422691221456 0
82 1 9 38.26552911859166 8.06071033920561 0
83 1 8 45.19506976634857 8.283315784155077 0
84 1 7 52.00795915841174 8.201905884915544 0
85 1 13 59.07381939509613 8.121192762075685 0
86 1 9 65.95596336090722 8.294766328415896 0
87 1 9 72.8393117100794 8.121079120987943 0
88 1 13 79.72676752349189 8.078642735272853 0
89 1 7 86.73977189153834 8.369284231705068 0
90 1 8 93.92512818873224 8.25969754896323 0
91 1 9 100.6618537972009 8.284917073262186 0
92 1 15 107.73144774977766 8.06466251499047 0
93 1 15 114.52395362553736 8.28820145547273 0
94 1 9 121.56670480184034 8.240764862128653 0
95 1 8 128.39514866903954 8.2362932888355 0
96 1 7 135.24844061898165 8.118173567052883 0
97 1 13 142.2724816006145 8.281957634808899 0
98 1 9 149.1799305559144 8.315007325001707 0
99 1 9 156.00575260106797 8.118308235991666 0
100 1 13 163.1764754272431 8.259949582015755 0
101 1 16 -3.1012896166772235 12.226058969284745 0
102 1 8 3.498387963316694 12.262196912950724 0
103 1 7 10.609203668780138 12.296455354570826 0
104 1 13 17.339004318853604 12.090920892453042 0
105 1 9 24.437516571293735 12.326034654935976 0
106 1 9 31.493446809153884 12.10194231205304 0
107 1 13 38.38683730098413 12.266210295133714 0
108 1 7 45.15764493377073 12.12281831230903 0
109 1 8 52.22472396803152 12.012576376258114 0
110 1 9 58.89704260212525 12.046391258160428 0
111 1 15 65.98771667047886 12.18772369799889 0
112 1 15 72.9238005052516 12.300273272960819 0
113 1 9 79.87407641373959 12.352540572238494 0
114 1 8 86.8038536786994 12.081446019552013 0
115 1 7 93.813839437282 12.179663889052831 0
116 1 13 100.56006321964666 12.079874917955266 0
117 1 9 107.70861819435392 12.052800080992075 0
118 1 9 114.60775007650909 12.209847122371878 0
119 1 13 121.57492836708704 12.297897844354456 0
120 1 7 128.3512842179972 12.171189208335045 0
121 1 8 135.49137921084832 12.094460233126588 0
122 1 9 142.36845413112852 12.012510643608437 0
123 1 15 149.022418555028 12.18118421092502 0
124 1 15 155.9918960664764 12.08357497440001 0
125 1 9 163.04682803203917 12.19763757298879 0
126 1 13 0.386901046502002 14.039633937679936 0
127 1 7 7.2450350144891225 14.201865503576967 0
128 1 8 14.185835514635281 14.2024486220816 0
129 1 13 21.103581899438034 14.3566604128318 0
130 1 13 27.963394095686265 14.359604703626722 0
131 1 13 34.722038739317696 14.084183591520427 0
132 1 8 41.9232993968242 14.066874957619744 0
133 1 7 48.83717450081525 14.240848315184177 0
134 1 13 55.63575662976938 14.00233222297275 0
135 1 14 62.42089636569918 14.012877705040871 0
136 1 10 69.58322911452663 14.339075268010408 0
137 1 14 76.42371317302175 14.393863709447329 0
138 1 13 83.51109435308177 14.292116508680062 0
139 1 7 90.35093765392482 14.383830770253622 0
140 1 8 97.34088603168189 14.059409618762722 0
141 1 13 103.9761871740786 14.102520661024027 0
142 1 13 110.88058675394682 14.218308840465808 0
143 1 13 117.92783089709228 14.292612973410648 0
144 1 8 124.75581350254399 14.36736909467563 0
145 1 7 131.95316588344264 14.104497914050688 0
146 1 13 138.6379077906263 14.345830744084822 0
147 1 14 145.60918444125318 14.38367511018989 0
148 1 10 152.65590033982022 14.19673013897574 0
149 1 14 159.58052464782483 14.370059820310281 0
150 1 13 166.4947812830234 14.344461402171895 0
151 1 9 0.2572245981461432 18.02429116247155 0
152 1 8 7.238089153442825 18.106965374105773 0
153 1 7 13.88467529684753 18.35908732282942 0
154 1 12 21.057712890082485 18.24673957787326 0
155 1 12 27.93837638134758 18.201975770000622 0
156 1 12 34.7015762110612 18.342690139890173 0
157 1 7 41.74145655980238 18.089885387751146 0
158 1 8 48.55793726568765 18.143994049177177 0
159 1 9 55.43804690750847 18.017056126479336 0
160 1 10 62.51244735606219 18.35079782302162 0
161 1 11 69.31318388010742 18.259059143145496 0
162 1 10 76.49454898677958 18.205544672859613 0
163 1 9 83.2025550323934 18.078528836985708 0
164 1 8 90.08823312256419 18.198710132476148 0
165 1 7 97.2976080918656 18.186400305801953 0
166 1 12 104.03908118270039 18.351423680021746 0
167 1 12 111.08986589541867 18.065015177963108 0
168 1 12 117.8586104993508 18.158232904676794 0
169 1 7 124.90558887877563 18.2537679107763 0
170 1 8 131.83548385463183 18.161654428493886 0
171 1 9 138.65535165355854 18.282391680441023 0
172 1 10 145.87241535820914 18.209677515193995 0
173 1 11 152.5031486515599 18.193424978600646 0
174 1 10 159.6755852467279 18.11361853408073 0
175 1 9 166.47656461490047 18.031631758519012 0
176 1 4 -3.1071947470027554 20.012879917592556 0
177 1 13 3.7961613271802825 20.203742083716666 0
178 1 7 10.519820485018547 20.275601443106055 0
179 1 7 17.677233101065124 20.053218663888337 0
180 1 7 24.513913697575184 20.219165300380105 0
181 1 7 31.417225986215648 20.33991443620508 0
182 1 7 38.20082121283547 20.069508121342643 0
183 1 7 45.42028186624221 20.06938563414591 0
184 1 13 52.20982375478233 20.302428206961036 0
185 1 14 59.02953110218167 20.311002222979347 0
186 1 11 65.89019653024111 20.252003945800183 0
187 1 11 72.90173006591222 20.375201919002436 0
188 1 14 79.72220563852163 20.23375183209018 0
189 1 13 86.9977292282072 20.0342916128518 0
190 1 7 93.5875373051502 20.035657493258423 0
191 1 7 100.81608211855743 20.134771036907047 0
192 1 7 107.78200495051207 20.084187153951028 0
193 1 7 114.32330806466274 20.050557996311564 0
194 1 7 121.4888929499934 20.2191405318566 0
195 1 7 128.30068896506194 20.398265402107164 0
196 1 13 135.24171855638787 20.159555370880796 0
197 1 14 142.0543755714484 20.140463978538587 0
198 1 11 149.27493924377765 20.103094230350276 0
199 1 11 156.20503628845188 20.270988889505663 0
200 1 14 163.01672686539894 20.033654575280778 0
201 1 4 -3.306177192970083 24.284922563294405 0
202 1 13 3.501954023523327 24.394019158246607 0
203 1 7 10.721815686791274 24.25035996026698 0
204 1 7 17.355040350599584 24.13669830602051 0
205 1 7 24.28065571739114 24.135762101957802 0
206 1 7 31.557945793744846 24.254406304677058 0
207 1 7 38.23639821691915 24.107973407013194 0
208 1 7 45.15733796442571 24.009203918953293 0
209 1 13 51.96221262174748 24.346903559154896 0
210 1 14 58.94023450029987 24.001959430549487 0
211 1 11 65.8533685316048 24.357848998052805 0
212 1 11 73.07968395299184 24.23128217452848 0
213 1 14 79.7433850124565 24.241033506632867 0
214 1 13 86.97068027195543 24.283862273166026 0
215 1 7 93.7092121614067 24.005441107594546 0
216 1 7 100.53584114202575 24.329212293959714 0
217 1 7 107.56463924220482 24.371251355977993 0
218 1 7 114.69828118230066 24.002221740079506 0
219 1 7 121.53804833791794 24.04761859122326 0
220 1 7 128.24837989684877 24.037065196303352 0
221 1 13 135.34906961358539 24.39041472356922 0
222 1 14 142.22933011600446 24.382712676729046 0
223 1 11 149.2504968719645 24.156796954519905 0
224 1 11 156.15226929502097 24.31236789768799 0
225 1 14 163.20713153634748 24.03685816295725 0
226 1 9 0.08438512819363897 26.37527803341501 0
227 1 8 7.2921437755876 26.033522129470914 0
228 1 7 13.858603832382679 26.28597068653641 0
229 1 12 20.8807614247732 26.16241560982431 0
230 1 12 27.719063861664274 26.17225218615303 0
231 1 12 34.66550752710133 26.08552913062147 0
232 1 7 41.86581607649943 26.295940552619776 0
233 1 8 48.53278839469826 26.04920836081359 0
234 1 9 55.77455443457733 26.150097719238076 0
235 1 10 62.58987260371431 26.353155547065132 0
236 1 11 69.67321226927874 26.152904395185256 0
237 1 10 76.25852263275888 26.25078196488473 0
238 1 9 83.28103946238274 26.06577390560074 0
239 1 8 90.20035674868306 26.068740219333495 0
240 1 7 97.01695515524139 26.01473360519675 0
241 1 12 104.06922781129529 26.394611488263006 0
242 1 12 111.02100645897167 26.179831434159578 0
243 1 12 117.93641648446354 26.054638350893825 0
244 1 7 125.09683667126775 26.043946421940536 0
245 1 8 132.01325217395217 26.233303973647264 0
246 1 9 138.73759621350584 26.39380235725308 0
247 1 10 145.59814794507298 26.13441602378825 0
248 1 11 152.54599159281796 26.393675882761787 0
249 1 10 159.49667979446738 26.01864571127769 0
250 1 9 166.42778738305313 26.384140328561273 0
251 1 13 0.1951928816920789 30.227693066984976 0
252 1 7 6.978347336830202 30.086276151867903 0
253 1 8 13.887585878284428 30.00555632943359 0
254 1 13 20.84515507008604 30.15793383895657 0
255 1 13 27.822238905456388 30.335156514075653 0
256 1 13 35.00118002647404 30.049499083722477 0
257 1 8 41.72678218568988 30.24479388370066 0
258 1 7 48.51351995404609 30.254654985378686 0
259 1 13 55.6457313659744 30.03659115695283 0
260 1 14 62.38738133703344 30.354690612094714 0
261 1 10 69.40461578571022 30.068932222158907 0
262 1 14 76.31756148940418 30.33908363460776 0
263 1 13 83.39057761221409 30.33025758596411 0
264 1 7 90.44153203228073 30.14776652914476 0
265 1 8 97.04484893975324 30.054879383292754 0
266 1 13 104.17803249965111 30.062796340902295 0
267 1 13 110.88827898705692 30.308202488805907 0
268 1 13 117.93824015598136 30.243624335140417 0
269 1 8 124.78116180746164 30.033637527205737 0
270 1 7 131.6447570813799 30.19142830264754 0
271 1 13 138.7062093452068 30.24938467761149 0
272 1 14 145.5258557494751 30.05238929142838 0
273 1 10 152.4610772697137 30.28930277786021 0
274 1 14 159.6386061253638 30.310847024634107 0
275 1 13 166.57755597900828 30.157772824188992 0
276 1 16 -3.1241215187026277 32.294485371371614 0
277 1 8 3.6574133579858605 32.20527828878063 0
278 1 7 10.559457211049647 32.01022171861214 0
279 1 13 17.687321203174967 32.13848222655953 0
280 1 9 24.47069621590492 32.26433875141969 0
281 1 9 31.279310679471198 32.08366874360282 0
282 1 13 38.190928103574194 32.26840150252796 0
283 1 7 45.20384631534928 32.32733651525448 0
284 1 8 52.06193426039175 32.151264856528236 0
285 1 9 58.91119559725855 32.199694536763104 0
286 1 15 66.04907291724916 32.066297408150916 0
287 1 15 72.85319087416258 32.20041223678695 0
288 1 9 79.94199607692263 32.27609884596034 0
289 1 8 86.89985762215508 32.310787479040535 0
290 1 7 93.78262676226511 32.09181394420258 0
291 1 13 100.82993971280922 32.27614804017325 0
292 1 9 107.53270943208557 32.056685150768686 0
293 1 9 114.51390972942909 32.258530512502794 0
294 1 13 121.32785476585867 32.19814607725039 0
295 1 7 128.53193873918386 32.036061608194466 0
296 1 8 135.30096080632586 32.1166451681164 0
297 1 9 142.32117507168257 32.26906031327236 0
298 1 15 149.29384727008105 32.395301484633485 0
299 1 15 156.17366043405588 32.17775585858942 0
300 1 9 163.11435716849488 32.17159556638042 0
301 1 3 -3.2124965975879927 36.26362990335687 0
302 1 7 3.794313171258337 36.16235022821273 0
303 1 8 10.575498567650374 36.13559084931178 0
304 1 9 17.645526738790664 36.10788291444923 0
305 1 15 24.51014324447454 36.13611433923051 0
306 1 15 31.541051735443176 36.23951963194347 0
307 1 9 38.44847926798466 36.08474344543019 0
308 1 8 45.12894184228224 36.142436354030195 0
309 1 7 51.98151466757529 36.21168344366765 0
310 1 13 59.11740803637906 36.09677251805818 0
311 1 9 66.06861592802098 36.31182334698735 0
312 1 9 72.84593083150986 36.03431230665042 0
313 1 13 79.86620862071088 36.14951864217593 0
314 1 7 86.6172249242343 36.272093411752365 0
315 1 8 93.9229294296012 36.39118060027576 0
316 1 9 100.61101925287579 36.199043656453966 0
317 1 15 107.73483243283104 36.06785133152387 0
318 1 15 114.64677843824812 36.08408637411983 0
319 1 9 121.57240940460956 36.06261508917677 0
320 1 8 128.42402596297896 36.29433996147574 0
321 1 7 135.43809901341447 36.07470855162389 0
322 1 13 142.38507773406783 36.39829590249948 0
323 1 9 149.11055859049588 36.33136704732072 0
324 1 9 156.08311864181923 36.2933390019098 0
325 1 13 163.02115250788086 36.1487367217135 0
326 1 8 0.23059582868552095 38.00592138920195 0
327 1 7 7.311134603426443 38.143524573146166 0
328 1 13 14.20918580553907 38.139625195560534 0
329 1 14 20.957517624400698 38.09376580224577 0
330 1 10 27.74992905579481 38.19697369122326 0
331 1 14 34.96337280159534 38.31391973669423 0
332 1 13 41.710880874712856 38.24637049849904 0
333 1 7 48.58457205334597 38.1712084886088 0
334 1 8 55.520094982551456 38.23247011478298 0
335 1 13 62.47249112968334 38.35409940367773 0
336 1 13 69.2882120615094 38.19741511677763 0
337 1 13 76.24329613864181 38.36831617207137 0
338 1 8 83.19421339969384 38.17997354915532 0
339 1 7 90.19491615136786 38.34950544417369 0
340 1 13 97.27402652909433 38.24970966849099 0
341 1 14 104.08342253826014 38.117957869692326 0
342 1 10 110.94627405027116 38.35121299354671 0
343 1 14 118.05099520695387 38.105167550364136 0
344 1 13 124.98514188258267 38.34962998562259 0
345 1 7 132.0221166502928 38.12984681259884 0
346 1 8 138.62142881069414 38.03669515895711 0
347 1 13 145.66432230632128 38.08843856185847 0
348 1 13 152.80631507410922 38.238776612597945 0
349 1 13 159.6009637688926 38.04386023006114 0
350 1 8 166.33604802645823 38.02115714079983 0
351 1 7 0.2721885964333714 42.01860376273978 0
352 1 8 7.261375900460063 42.31077018245052 0
353 1 9 14.114535723391567 42.3647574095992 0
354 1 10 21.088196290847467 42.037254550641926 0
355 1 11 27.85220841934498 42.00049074251441 0
356 1 10 34.7528761572353 42.10384791836825 0
357 1 9 41.6985055048478 42.06276880186833 0
358 1 8 48.62600173796783 42.18507173183189 0
359 1 7 55.79196744373744 42.15790366277135 0
360 1 12 62.70513054279604 42.03844381682401 0
361 1 12 69.55948932916898 42.33698260188135 0
362 1 12 76.39189170663846 42.083062725517394 0
363 1 7 83.47050113100923 42.31496815361784 0
364 1 8 90.40913378958896 42.35107502477012 0
365 1 9 97.36535119569916 42.07998782353053 0
366 1 10 104.09249812957498 42.11590014901129 0
367 1 11 111.05413781197034 42.10726664822255 0
368 1 10 118.1482534591927 42.080847797992924 0
369 1 9 124.86621424442582 42.046773233224656 0
370 1 8 131.71496118344902 42.122221267406566 0
371 1 7 138.69232804607378 42.13206900340098 0
372 1 12 145.53905841311564 42.13387253139833 0
373 1 12 152.63491207815662 42.235340259433514 0
374 1 12 159.42387789707274 42.349815917772254 0
375 1 7 166.3867313367052 42.111341238048176 0
376 1 2 -3.1306766249373936 44.21124640949743 0
377 1 7 3.841316716272098 44.02599178506815 0
378 1 13 10.457466618099293 44.00395148373853 0
379 1 14 17.339163780347 44.365338482011815 0
380 1 11 24.534046735770357 44.377472835677395 0
381 1 11 31.51554295489624 44.142538014760376 0
382 1 14 38.47282411931207 44.01977350450928 0
383 1 13 45.143481115539736 44.05859758395342 0
384 1 7 52.0131969890215 44.37570984198982 0
385 1 7 58.938409028639605 44.22630682440162 0
386 1 7 65.85840791953416 44.21296272142371 0
387 1 7 72.89796683684442 44.1093009855033 0
388 1 7 79.86830183389304 44.27655603779483 0
389 1 7 86.99989030133065 44.20629222250186 0
390 1 13 93.6670786554294 44.07509604992027 0
391 1 14 100.70951302563047 44.38360969129915 0
392 1 11 107.76861796536302 44.0223314337058 0
393 1 11 114.33539813595002 44.09165895119597 0
394 1 14 121.54198952691063 44.079047146330296 0
395 1 13 128.45561892743214 44.021138616420195 0
396 1 7 135.4325535759492 44.29698413271618 0
397 1 7 142.19573747470588 44.25667067564755 0
398 1 7 149.09312429817263 44.13822878195997 0
399 1 7 156.28401540641704 44.11190604676921 0
400 1 7 162.83387610719555 44.34669158814627 0
401 1 2 -3.1354669076981363 48.30441661213111 0
402 1 7 3.534761186257668 48.0998885582322 0
403 1 13 10.430690707738364 48.27043327545335 0
404 1 14 17.65792152884938 48.287009514863435 0
405 1 11 24.638811293063306 48.25470021648438 0
406 1 11 31.29617628182908 48.14677655458998 0
407 1 14 38.188863286748905 48.0860899586036 0
408 1 13 45.17161578360934 48.08554445762981 0
409 1 7 52.05118248822238 48.04829576059736 0
410 1 7 58.94968447658364 48.10597740140509 0
411 1 7 65.84508590242974 48.33163726747736 0
412 1 7 72.76659253100087 48.39438042593514 0
413 1 7 79.882650063086 48.020799027152556 0
414 1 7 86.7115952874985 48.22323302961363 0
415 1 13 93.75531760651863 48.06788341694412 0
416 1 14 100.53273190576344 48.02065284402403 0
417 1 11 107.65389446719452 48.050076267516324 0
418 1 11 114.35855963784243 48.310980611827546 0
419 1 14 121.50934409868945 48.252952136490066 0
420 1 13 128.32295308951018 48.18093342310348 0
421 1 7 135.27797826634665 48.25599129361505 0
422 1 7 142.2883844509157 48.32590340102224 0
423 1 7 149.2085515741111 48.05133812888819 0
424 1 7 156.09253842083933 48.264692025530415 0
425 1 7 163.15226543436432 48.09433406004967 0
426 1 7 0.2920843570359261 50.117405055748776 0
427 1 8 7.21387127046174 50.28208066801618 0
428 1 9 14.176883264837702 50.19180751036932 0
429 1 10 21.121221389080244 50.06621518941608 0
430 1 11 27.95037295936422 50.23409823947538 0
431 1 10 34.67950507654368 50.14759958321379 0
432 1 9 41.95125504401602 50.328354260944664 0
433 1 8 48.847980591256636 50.23071782723111 0
434 1 7 55.44852319517559 50.09530187042236 0
435 1 12 62.71564999216496 50.28786293901288 0
436 1 12 69.51397827549523 50.34508294899222 0
437 1 12 76.35938603727196 50.22680517763588 0
438 1 7 83.5275739284453 50.23648599433206 0
439 1 8 90.39619254935764 50.246206164723844 0
440 1 9 97.35151215043855 50.12381998399455 0
441 1 10 104.0875710135542 50.1876777233768 0
442 1 11 111.12905343858783 50.2301966474127 0
443 1 10 117.82240139886979 50.194444121825505 0
444 1 9 124.91391005008177 50.32529685798166 0
445 1 8 131.96047116176544 50.250613191478394 0
446 1 7 138.59625104337374 50.391663649965054 0
447 1 12 145.67425471393145 50.21724604057398 0
448 1 12 152.7990598046621 50.26304585545193 0
449 1 12 159.36332858911035 50.315074771258985 0
450 1 7 166.62423955019656 50.087421916856634 0
451 1 8 0.37411091548126196 54.026859458886044 0
452 1 7 7.14628354955073 54.381336298026184 0
453 1 13 14.24149469662159 54.36811161161215 0
454 1 14 20.920698408068148 54.34454923971289 0
455 1 10 28.053641820752887 54.084875652822106 0
456 1 14 34.99581875502489 54.17802018653183 0
457 1 13 41.678937048393955 54.32746133831074 0
458 1 7 48.615650273864155 54.24642630664878 0
459 1 8 55.73597347860316 54.39002170845494 0
460 1 13 62.40385144797758 54.34732732298035 0
461 1 13 69.3770587758293 54.25451512427377 0
462 1 13 76.32226193295344 54.294730395037725 0
463 1 8 83.2867917590161 54.27440899720421 0
464 1 7 90.28456904284623 54.18631644848452 0
465 1 13 97.15704458352307 54.27368003194768 0
466 1 14 104.07004083975468 54.35179021320804 0
467 1 10 111.20232055128513 54.396207429498666 0
468 1 14 118.13196717528312 54.35372116338142 0
469 1 13 125.01492268322272 54.010599871983665 0
470 1 7 131.861082259271 54.159824857200086 0
471 1 8 138.79978956346687 54.334721420835464 0
472 1 13 145.82895512471396 54.10715700485209 0
473 1 13 152.68651190506793 54.0366771517658 0
474 1 13 159.66432798766368 54.35291425892355 0
475 1 8 166.5325229291386 54.21086615164736 0
476 1 3 -3.080106849312325 56.295957753803265 0
477 1 7 3.855453562504333 56.05580077825667 0
478 1 8 10.78410847746272 56.39914683784144 0
479 1 9 17.658823340647782 56.232147019467604 0
480 1 15 24.605087692967633 56.23501801298678 0
481 1 15 31.3784746312087 56.08091598279299 0
482 1 9 38.317091476291424 56.37286161258926 0
483 1 8 45.166565184722145 56.011914895130964 0
484 1 7 52.15512532388851 56.262021739426324 0
485 1 13 58.98263423186792 56.37442228513573 0
486 1 9 65.89718892872894 56.20065848533459 0
487 1 9 72.89177643338229 56.21897494875927 0
488 1 13 79.79052657018372 56.348486627491965 0
489 1 7 86.99246871221625 56.101048409318494 0
490 1 8 93.76571173135463 56.1321108448181 0
491 1 9 100.81939574553478 56.190151617169874 0
492 1 15 107.42337643855221 56.142650882030246 0
493 1 15 114.49516563845197 56.22638676549779 0
494 1 9 121.28557233109339 56.18835943754391 0
495 1 8 128.1995089989783 56.08718608163721 0
496 1 7 135.36703469071207 56.12640465235432 0
497 1 13 142.39834134003414 56.24705011581906 0
498 1 9 149.2657522491006 56.05337268394812 0
499 1 9 156.14693630324697 56.082567471446744 0
500 1 13 163.02965837957763 56.1755267379724 0
501 1 16 -3.348642468326685 60.296935120931614 0
502 1 8 3.5298916559520257 60.18398471150977 0
503 1 7 10.69456375000273 60.15277411297696 0
504 1 13 17.669326798277325 60.313582203060705 0
505 1 9 24.36302089023514 60.37692683653573 0
506 1 9 31.20831749492236 60.256858747673675 0
507 1 13 38.127407730353376 60.08284557223792 0
508 1 7 45.33484807560612 60.212660341610444 0
509 1 8 52.3128237141297 60.304872196924116 0
510 1 9 59.234666050008094 60.251702018794035 0
511 1 15 65.95588154089667 60.23259105624171 0
512 1 15 72.7492933895487 60.13454197671012 0
513 1 9 80.03687141198112 60.068685436095045 0
514 1 8 86.79652917675207 60.26950173093111 0
515 1 7 93.85434410565595 60.238858192327726 0
516 1 13 100.80961505432708 60.109891150272475 0
517 1 9 107.56772149893499 60.02893633096738 0
518 1 9 114.67119376567129 60.38563558227101 0
519 1 13 121.58479792219893 60.29620724340837 0
520 1 7 128.26136072651113 60.23070817398701 0
521 1 8 135.12507196448644 60.308686550295974 0
522 1 9 142.10761264803796 60.15265500642077 0
523 1 15 149.30045248794653 60.0219483874027 0
524 1 15 156.12229279579057 60.01153038920134 0
525 1 9 162.83258246916793 60.26084380870558 0
526 1 13 0.2527274971105815 62.11141209176101 0
527 1 7 7.131639951447699 62.09519756533574 0
528 1 8 14.199233127875454 62.36651066091571 0
529 1 13 21.173591725269592 62.3334975425434 0
530 1 13 27.886777819111646 62.08206677316708 0
531 1 13 34.66089073170954 62.00423214618128 0
532 1 8 41.73950930511819 62.22016989569966 0
533 1 7 48.57473580069634 62.31906501315571 0
534 1 13 55.5611818422975 62.09276306613309 0
535 1 14 62.58904176801649 62.31151997763375 0
536 1 10 69.34693866039241 62.0838210144863 0
537 1 14 76.23025759380852 62.382617755755405 0
538 1 13 83.32557290413904 62.24283363545986 0
539 1 7 90.37356386562266 62.37304073938308 0
540 1 8 97.1259761446968 62.25572495390622 0
541 1 13 103.99809552295054 62.3376156706529 0
542 1 13 111.11582431911498 62.13756442400512 0
543 1 13 117.98138734291413 62.397392541194996 0
544 1 8 124.97490537642511 62.21258446200031 0
545 1 7 131.65527144855477 62.17036051864754 0
546 1 13 138.92525892112306 62.25330193483276 0
547 1 14 145.72699364450347 62.12547458383242 0
548 1 10 152.6391100255665 62.33928263452864 0
549 1 14 159.6347761472478 62.24251032437356 0
550 1 13 166.4415925894327 62.35292760898518 0
551 1 9 0.32640909926342965 66.18080727617719 0
552 1 8 7.160797327704583 66.1757246115651 0
553 1 7 14.19379227097026 66.3236258121957 0
554 1 12 21.090913312229855 66.02720255851608 0
555 1 12 27.75694319958641 66.36803793261586 0
556 1 12 34.74629521033259 66.27718072932579 0
557 1 7 41.71582794342121 66.2222377706025 0
558 1 8 48.8614009966984 66.19922316221562 0
559 1 9 55.564912484032014 66.07230322349847 0
560 1 10 62.69975406800814 66.24770257046643 0
561 1 11 69.6412081287996 66.0301084739514 0
562 1 10 76.24629245617001 66.37416136968679 0
563 1 9 83.21530913470465 66.14444393555766 0
564 1 8 90.22403151210224 66.12054244692179 0
565 1 7 97.03597269596924 66.12251036742751 0