
14309 atoms
14896 bonds
16659 angles
23 atom types
7 bond types
18 angle types

-5.680607966083864 171.52447279080386 xlo xhi
-2.0 148.0 ylo yhi
-4 4 zlo zhi


Masses

1 0.0002709424669800761
2 0.0005418849339601522
3 0.0005314640698455339
4 0.0004793597492724424
5 0.00040641370047011415
6 0.00037515110812625925
7 0.0008128274009402283
8 0.000771143944481755
9 0.000666935303335572
10 0.0005835683904186254
11 0.0005627266621893889
12 0.0007919856727109918
13 0.0007086187597940452
14 0.0006044101186478621
15 0.0005210432057309156
16 0.00045851802104320574
17 0.0005418849339601522
18 0.0005210432057309156
19 0.000500201477501679
20 0.00045851802104320574
21 0.00041683456458473247
22 0.00039599283635549583
23 0.00037515110812625925

Pair Coeffs

1 0.40509979849834776 0.44544935907016964 0.5
2 0.40509979849834776 0.44544935907016964 0.5
3 0.40509979849834776 0.44544935907016964 0.5
4 0.40509979849834776 0.44544935907016964 0.5
5 0.40509979849834776 0.44544935907016964 0.5
6 0.40509979849834776 0.44544935907016964 0.5
7 0.40509979849834776 0.44544935907016964 0.5
8 0.40509979849834776 0.44544935907016964 0.5
9 0.40509979849834776 0.44544935907016964 0.5
10 0.40509979849834776 0.44544935907016964 0.5
11 0.40509979849834776 0.44544935907016964 0.5
12 0.40509979849834776 0.44544935907016964 0.5
13 0.40509979849834776 0.44544935907016964 0.5
14 0.40509979849834776 0.44544935907016964 0.5
15 0.40509979849834776 0.44544935907016964 0.5
16 0.40509979849834776 0.44544935907016964 0.5
17 0.40509979849834776 0.44544935907016964 0.5
18 0.40509979849834776 0.44544935907016964 0.5
19 0.40509979849834776 0.44544935907016964 0.5
20 0.40509979849834776 0.44544935907016964 0.5
21 0.40509979849834776 0.44544935907016964 0.5
22 0.40509979849834776 0.44544935907016964 0.5
23 0.40509979849834776 0.44544935907016964 0.5

Bond Coeffs

1 108.37698679203045 0.5
2 104.20864114618311 0.5
3 100.0402955003358 0.5
4 91.70360420864114 0.5
5 83.36691291694649 0.5
6 79.19856727109917 0.5
7 75.03022162525184 0.5

Angle Coeffs

1 10.607913516442778 180
2 9.430396489213607 180
3 8.34341126828089 180
4 6.426551156297376 180
5 4.828363002477366 180
6 4.139717729249032 180
7 3.519876628806001 180
8 10.607913516442778 120
9 9.984557615398241 120
10 7.260595225944338 120
11 4.4576003545315634 120
12 3.519876628806003 120
13 8.853665731732073 120
14 9.430396489213607 120
15 5.513986406089553 120
16 6.426551156297376 120
17 3.8047173267639045 120
18 4.139717729249029 120

Atoms

1 1 1 -3.0763064112291403 0.021901219556641573 0
2 1 2 3.5889075140716766 0.34766543816820894 0
3 1 3 10.740570151460043 0.033001475718895536 0
4 1 4 17.328066128265156 0.05839401899335686 0
5 1 5 24.2901187191546 0.14116498966910546 0
6 1 6 31.18784243202226 0.38913432438775464 0
7 1 6 38.245169375491805 0.3381691468373508 0
8 1 5 45.192544179177446 0.3092104980094667 0
9 1 4 52.05461325233829 0.09475669034741846 0
10 1 3 59.14558666766221 0.3456401152689232 0
11 1 2 65.99594768459399 0.29134886725862225 0
12 1 2 73.14380792078347 0.27703838000422726 0
13 1 2 79.88639459556912 0.16596447475126494 0
14 1 2 86.83131682972 0.18598765358210156 0
15 1 2 93.59417803951467 0.00220050500836142 0
16 1 2 100.585472770795 0.08601616946433932 0
17 1 2 107.61027152600278 0.332748274253475 0
18 1 3 114.52736394070644 0.12583085999056368 0
19 1 4 121.24512212256133 0.07610326588623294 0
20 1 5 128.4846064985889 0.0895522131175445 0
21 1 6 135.34772441972194 0.2992098506214828 0
22 1 6 142.1701649409628 0.20928992544405958 0
23 1 5 149.18346440720987 0.08760911897789524 0
24 1 4 156.14489777733283 0.220292299262217 0
25 1 3 163.17266189857372 0.3365041290605073 0
26 1 7 0.1356406228675274 2.2561658101734317 0
27 1 7 6.986158757472625 2.0727126952084016 0
28 1 8 14.168092778633573 2.1800129225251386 0
29 1 9 20.86952708569237 2.3826442247122426 0
30 1 10 27.914584226740054 2.0095343363034006 0
31 1 11 34.706999250497425 2.1253541314924425 0
32 1 10 41.74409049680715 2.363784185475469 0
33 1 9 48.530821026317035 2.0881654908717526 0
34 1 8 55.51421317874995 2.131601584775354 0
35 1 7 62.55354755048948 2.3272268718007063 0
36 1 7 69.50272279258942 2.258143916079451 0
37 1 7 76.22083121913569 2.3808425095487418 0
38 1 7 83.21366157750492 2.1997098619131124 0
39 1 7 90.21712773125526 2.268446907501134 0
40 1 7 97.38726937797937 2.3209390702776007 0
41 1 7 104.28015954152029 2.169164994208701 0
42 1 7 110.96044184711644 2.2416124398945705 0
43 1 8 117.94882134714246 2.0140990030226398 0
44 1 9 125.03304362291814 2.1923326383072537 0
45 1 10 131.98466888186485 2.2101682909660334 0
46 1 11 138.81740854497733 2.022634550280938 0
47 1 10 145.49584518666617 2.0125011111507547 0
48 1 9 152.78180008945031 2.078624714947057 0
49 1 8 159.45771432544143 2.0778338267793646 0
50 1 7 166.5583567680337 2.234871541416467 0
51 1 7 0.30945941545690997 6.287001921164494 0
52 1 7 7.022526998330829 6.298818582844166 0
53 1 12 14.014222231292072 6.206146961981848 0
54 1 13 21.11258968637129 6.03469362349155 0
55 1 14 27.764008458383667 6.359179945347199 0
56 1 10 34.861528184108806 6.349919942552541 0
57 1 14 41.6281751347408 6.189006789328763 0
58 1 13 48.63353756003649 6.0131836513728265 0
59 1 12 55.6831336233539 6.238649712294351 0
60 1 7 62.430407035502675 6.315213929603311 0
61 1 7 69.37173900956809 6.193801979911901 0
62 1 12 76.35254840877475 6.274704663171537 0
63 1 12 83.50347743072048 6.3035527912223515 0
64 1 12 90.2268048832386 6.162488406686519 0
65 1 12 97.29988346593484 6.083085733607038 0
66 1 7 103.95205697521858 6.251797779115763 0
67 1 7 110.92255874797968 6.1585928080197 0
68 1 12 117.95575799782354 6.386561093429935 0
69 1 13 124.98678526207942 6.228418407739093 0
70 1 14 131.65549916723882 6.325004347161883 0
71 1 10 138.8645275840423 6.3002330927205215 0
72 1 14 145.58820191025484 6.166842511129044 0
73 1 13 152.75002296533432 6.223792148813739 0
74 1 12 159.6554369477187 6.1665180647081455 0
75 1 7 166.49265234101432 6.105045923009228 0
76 1 3 -3.1520662166187416 8.100881214249178 0
77 1 7 3.8242664046769383 8.01007524465355 0
78 1 7 10.645718591249066 8.023273920196768 0
79 1 8 17.525867275247492 8.38330193107446 0
80 1 9 24.36408601098958 8.233687716365893 0
81 1 14 31.490520856591033 8.102781061907558 0
82 1 14 38.460425236985905 8.309608306654368 0
83 1 9 45.14971901529377 8.358566032445603 0
84 1 8 52.196702217770195 8.26305419232287 0
85 1 7 59.18471000554507 8.258600333248136 0
86 1 7 65.84804832128965 8.220453494868448 0
87 1 12 72.99840316719295 8.239277546564676 0
88 1 8 80.01738142986244 8.048771233013534 0
89 1 8 86.6679476078091 8.381024671356457 0
90 1 8 93.78466436891779 8.042869490051787 0
91 1 12 100.5546378005336 8.16930851773152 0
92 1 7 107.58346454681616 8.307933539197494 0
93 1 7 114.62332523960974 8.323325780495901 0
94 1 8 121.29053872923352 8.359313140140799 0
95 1 9 128.5485517141152 8.29967521535451 0
96 1 14 135.32590034206515 8.032429826230048 0
97 1 14 142.26054066358748 8.213419848403571 0
98 1 9 149.0505756063412 8.394796028373186 0
99 1 8 156.21599237323744 8.37699272114877 0
100 1 7 163.06722643997557 8.392995262967865 0
101 1 15 -3.1439146183525732 12.088338866220663 0
102 1 7 3.5102974966963694 12.054473441372792 0
103 1 7 10.708003979519217 12.380650348990018 0
104 1 12 17.589384055250314 12.304253806897789 0
105 1 13 24.359786279578607 12.36853658852466 0
106 1 9 31.527628938082973 12.381842459925714 0
107 1 9 38.11307252041333 12.282744782198055 0
108 1 13 45.06693194362703 12.31864306069211 0
109 1 12 51.99108691590657 12.008571587163436 0
110 1 7 58.97584135735786 12.228888806671733 0
111 1 7 65.83302910193126 12.017748203607882 0
112 1 8 72.87690145405503 12.218382908865054 0
113 1 13 79.76877836178227 12.244586894973693 0
114 1 13 86.71497963674756 12.32544939178818 0
115 1 13 93.8225645217573 12.357002304853175 0
116 1 8 100.7172050653196 12.33214904819236 0
117 1 7 107.56353650332444 12.294735301622772 0
118 1 7 114.4005319733497 12.333301314677062 0
119 1 12 121.35745621601923 12.201640621663252 0
120 1 13 128.19793459493886 12.38066107565841 0
121 1 9 135.10491371968607 12.094324368175526 0
122 1 9 142.35022839670327 12.043454547028887 0
123 1 13 149.11042436295884 12.221836648527518 0
124 1 12 156.01509900540847 12.396792937217766 0
125 1 7 163.06302519174776 12.122646969557175 0
126 1 12 0.1552119579618519 14.378490485243855 0
127 1 7 6.95133526595191 14.043780646335945 0
128 1 7 14.139609393924815 14.156696645693216 0
129 1 8 21.021292195790682 14.059901860816218 0
130 1 13 27.874134725894017 14.16062849564343 0
131 1 13 34.82013812880335 14.1834663925567 0
132 1 13 41.69122106333586 14.110535062303196 0
133 1 8 48.66791997733901 14.021459163071881 0
134 1 7 55.45007404854282 14.105390389983281 0
135 1 7 62.66774326779984 14.19379777669734 0
136 1 12 69.40484554074112 14.228078063038542 0
137 1 13 76.27547834844563 14.034489149409312 0
138 1 9 83.27254041888352 14.345405744819361 0
139 1 9 90.10508804296491 14.377172114692218 0
140 1 13 97.22753953312748 14.02081927481715 0
141 1 12 103.93418546038693 14.33204863736291 0
142 1 7 110.95864412528702 14.38962970180037 0
143 1 7 117.89927424392147 14.1247725647652 0
144 1 8 124.77488980587394 14.00506376970626 0
145 1 13 131.91175580222225 14.10189455705523 0
146 1 13 138.85438127716571 14.317165386990265 0
147 1 13 145.67167982903752 14.165385698584034 0
148 1 8 152.67685141830316 14.2130270878544 0
149 1 7 159.72408534935946 14.030940360707797 0
150 1 7 166.44623065600663 14.221178508877424 0
151 1 8 0.08622797931297761 18.0749220883323 0
152 1 7 7.047670319107336 18.049456118881366 0
153 1 7 13.972151460957958 18.028281421167435 0
154 1 12 21.17727004825136 18.288338432451994 0
155 1 8 27.95277134227522 18.380012424747765 0
156 1 8 34.93711737148323 18.299082328844484 0
157 1 8 41.64373233321018 18.23094925901172 0
158 1 12 48.50624787764533 18.135518680245504 0
159 1 7 55.5626523062245 18.375629755963185 0
160 1 7 62.69004793548628 18.272851002110546 0
161 1 8 69.48577293664417 18.27461077577651 0
162 1 9 76.48353346978972 18.162168150439687 0
163 1 14 83.35131810265392 18.243744255887353 0
164 1 14 90.10160946667617 18.33574636463684 0
165 1 9 97.37264830191253 18.228087690048035 0
166 1 8 104.12436667449627 18.162030565651303 0
167 1 7 110.98393388852413 18.278014849496746 0
168 1 7 117.80707707824575 18.120631454862583 0
169 1 12 125.04831977405826 18.256641780980246 0
170 1 8 131.94414861252403 18.054219187861978 0
171 1 8 138.6766398895508 18.13521682875912 0
172 1 8 145.71001590575767 18.014198544218377 0
173 1 12 152.59785271283235 18.25851138678668 0
174 1 7 159.63880847594712 18.177465848271183 0
175 1 7 166.5510946337547 18.333320388632185 0
176 1 4 -3.1946761430636315 20.33318276373035 0
177 1 12 3.524948270615803 20.15396125291163 0
178 1 7 10.510435363922475 20.331195100335627 0
179 1 7 17.52391885493042 20.090000508112304 0
180 1 12 24.481261447939367 20.132969847672122 0
181 1 12 31.376393309882268 20.062617116628076 0
182 1 12 38.22643108225653 20.20964495695186 0
183 1 12 45.15234579154671 20.29884346947308 0
184 1 7 52.107402525017875 20.145708046062516 0
185 1 7 58.940520212965865 20.309878235119132 0
186 1 12 65.89046663601462 20.015164610262115 0
187 1 13 72.80587966925242 20.234548330684515 0
188 1 14 79.78920228680542 20.07237233589897 0
189 1 10 86.60993602313181 20.376532875951803 0
190 1 14 93.71266745939566 20.285584266042562 0
191 1 13 100.46345560984459 20.02291885273482 0
192 1 12 107.40725222262436 20.244232627052273 0
193 1 7 114.41395662412495 20.031272197729713 0
194 1 7 121.46348302794462 20.220143946645887 0
195 1 12 128.1919858482055 20.347625660487086 0
196 1 12 135.45661291203447 20.18471050091006 0
197 1 12 142.0868549603874 20.21231796938956 0
198 1 12 149.2540894870399 20.28192558207336 0
199 1 7 156.27235994722028 20.118935269981915 0
200 1 7 162.91157999437786 20.067706502370665 0
201 1 16 -3.3404902387473934 24.345578738519198 0
202 1 8 3.558414305968511 24.140497836187077 0
203 1 7 10.505026568510447 24.343401770274923 0
204 1 7 17.5060370047568 24.329847568463336 0
205 1 7 24.453557671344704 24.348968785463132 0
206 1 7 31.37062303356712 24.203441264545322 0
207 1 7 38.179663417109985 24.237381066738937 0
208 1 7 45.23633398469105 24.090097446718257 0
209 1 7 52.063516424365396 24.02903377074882 0
210 1 7 59.28871425861842 24.34077678664852 0
211 1 8 66.08816190573619 24.117491170946185 0
212 1 9 72.90327854962581 24.02130050835234 0
213 1 10 79.7924577363818 24.254711789690674 0
214 1 11 86.81955322627888 24.00530009555292 0
215 1 10 93.56466084450568 24.170656674627104 0
216 1 9 100.63373166875826 24.292322661586187 0
217 1 8 107.68534764861212 24.333016731264518 0
218 1 7 114.55844418462836 24.32521087016802 0
219 1 7 121.51239112153114 24.176006370996372 0
220 1 7 128.3265865091224 24.116305180085302 0
221 1 7 135.3277616879255 24.381056314811733 0
222 1 7 142.29563078989722 24.288139583930775 0
223 1 7 149.05688257809055 24.177956243811813 0
224 1 7 156.13527907289392 24.05613501670784 0
225 1 7 162.85964201011777 24.099102637837227 0
226 1 13 0.3660943824973169 26.396155662466928 0
227 1 12 7.030560800614727 26.160448761631002 0
228 1 7 14.172969647285031 26.27352685652743 0
229 1 7 21.026982659842776 26.206360412624367 0
230 1 7 27.963879601764805 26.312137119308552 0
231 1 7 35.01148100355466 26.16803779965886 0
232 1 7 41.7773629666842 26.097932270205582 0
233 1 7 48.59230182817711 26.309000889608456 0
234 1 7 55.67451432992289 26.17347391572078 0
235 1 12 62.52422240636599 26.300325232558876 0
236 1 13 69.62379046645857 26.294125635649664 0
237 1 14 76.59144429495417 26.128314573468906 0
238 1 11 83.3409017281598 26.169004094851463 0
239 1 11 90.35998425731533 26.05276623674726 0
240 1 14 97.31128927803296 26.19662747221957 0
241 1 13 104.07524672905757 26.171404182509125 0
242 1 12 111.11184898848549 26.223079940765942 0
243 1 7 118.12930077432158 26.357666513024633 0
244 1 7 124.92675663839155 26.32339960233924 0
245 1 7 131.78498989440953 26.385580076160032 0
246 1 7 138.73379433543784 26.009945710650523 0
247 1 7 145.5705178542936 26.069315085003595 0
248 1 7 152.61549676911272 26.32442164734441 0
249 1 7 159.54150273870863 26.209562204833958 0
250 1 12 166.45675819372627 26.21807495391597 0
251 1 13 0.36615500340354684 30.23569443262503 0
252 1 12 7.153932314309129 30.20116924492783 0
253 1 7 13.953499543114901 30.224768780891818 0
254 1 7 20.964930665708202 30.12222344992785 0
255 1 7 27.74521095251672 30.00551516420727 0
256 1 7 34.94504039268074 30.306156720207174 0
257 1 7 41.93998393908876 30.126566569159067 0
258 1 7 48.703813008318676 30.327530352334772 0
259 1 7 55.54202320717231 30.17398236213913 0
260 1 12 62.36824217847226 30.03682006490333 0
261 1 13 69.31213984395346 30.11988865458746 0
262 1 14 76.56141705015371 30.233445041447307 0
263 1 11 83.4012814003786 30.282170468831318 0
264 1 11 90.28499707434285 30.23534047997829 0
265 1 14 97.13481115414311 30.02904093885584 0
266 1 13 104.17865422323914 30.0622104925791 0
267 1 12 110.99635584852095 30.21300513991062 0
268 1 7 117.89890880875586 30.278320523231407 0
269 1 7 125.02489585941457 30.291141007134165 0
270 1 7 131.7665744602882 30.38568959192865 0
271 1 7 138.95527997320997 30.009996454949544 0
272 1 7 145.5411227449254 30.37771476514378 0
273 1 7 152.74550079658286 30.340644686989325 0
274 1 7 159.64774354544804 30.107052849776892 0
275 1 12 166.66306567149158 30.17872116191041 0
276 1 16 -3.1399931921576028 32.09358424137231 0
277 1 8 3.848055120806387 32.18468390086149 0
278 1 7 10.428208853534887 32.359322632987165 0
279 1 7 17.38772375620069 32.20428148339088 0
280 1 7 24.426154762405723 32.050150636237035 0
281 1 7 31.359435109903398 32.28748930789736 0
282 1 7 38.5032986393996 32.19175872139154 0
283 1 7 45.21303991555852 32.111264651876695 0
284 1 7 52.04407864771099 32.372176136733515 0
285 1 7 58.92824399265463 32.04715553057632 0
286 1 8 66.10946326823591 32.24445584516024 0
287 1 9 72.76706951119174 32.302380588430594 0
288 1 10 79.81962936142271 32.3407028741825 0
289 1 11 86.67181377291983 32.2113339407458 0
290 1 10 93.59760558876857 32.38100124580604 0
291 1 9 100.5098134796936 32.134048243425525 0
292 1 8 107.60562372804235 32.27223873388067 0
293 1 7 114.55691615725743 32.18872654101388 0
294 1 7 121.3899734641044 32.095065660917044 0
295 1 7 128.28375844975213 32.17937002596397 0
296 1 7 135.3669170862903 32.38090803291389 0
297 1 7 142.03902077206956 32.11896895285784 0
298 1 7 149.05269653224335 32.13835665308629 0
299 1 7 156.16876804346953 32.1419848764044 0
300 1 7 163.04203856448632 32.376046907698964 0
301 1 4 -3.1830029581807944 36.379890643123154 0
302 1 12 3.493469370318987 36.20181737315274 0
303 1 7 10.490467220968307 36.09228158570995 0
304 1 7 17.50383409122456 36.354099901974 0
305 1 12 24.62046734305294 36.0093574295291 0
306 1 12 31.315188823631082 36.00644218825983 0
307 1 12 38.221167827808074 36.201259715834084 0
308 1 12 45.377369078668 36.24712856681613 0
309 1 7 52.34868402453887 36.13432857215689 0
310 1 7 59.02486130287923 36.18055738039846 0
311 1 12 65.888373074577 36.023779582967286 0
312 1 13 72.85894653707416 36.31912746629591 0
313 1 14 79.86102101102392 36.32945126573464 0
314 1 10 86.80028037360309 36.35274230827802 0
315 1 14 93.64174604386692 36.04133714849925 0
316 1 13 100.53013477250018 36.160172660593716 0
317 1 12 107.65188353990649 36.07288834058974 0
318 1 7 114.54291039604757 36.23761702006023 0
319 1 7 121.33599466493929 36.279703401789604 0
320 1 12 128.42475046851806 36.12268960377085 0
321 1 12 135.48719996639934 36.215806013065716 0
322 1 12 142.08979804977926 36.1187244605268 0
323 1 12 149.0785580185644 36.02613642977381 0
324 1 7 156.02540802578446 36.26234731117693 0
325 1 7 162.8825675506121 36.25772008637826 0
326 1 8 0.3143476727184254 38.36299357041336 0
327 1 7 7.20716060709416 38.34622168357334 0
328 1 7 14.06335689002308 38.027644988958535 0
329 1 12 20.98439337370932 38.18581125833607 0
330 1 8 28.103208601744544 38.37427739559413 0
331 1 8 34.74897328195974 38.29256914480253 0
332 1 8 41.91831162427991 38.29683366690467 0
333 1 12 48.5722088748777 38.22344988186021 0
334 1 7 55.68897848641166 38.32939337483167 0
335 1 7 62.423842213559645 38.191713564913265 0
336 1 8 69.46522433612995 38.046406920645644 0
337 1 9 76.46371387774026 38.35064700346113 0
338 1 14 83.30541324906669 38.09309521866737 0
339 1 14 90.22935995741015 38.36508872037562 0
340 1 9 97.3264722856634 38.06368402364084 0
341 1 8 104.09951979442873 38.349166728661565 0
342 1 7 111.12555148267978 38.221207133994646 0
343 1 7 118.07804007586908 38.248433439996376 0
344 1 12 124.78369096702744 38.37849596548098 0
345 1 8 131.70190184480649 38.200477604002636 0
346 1 8 138.8303317293458 38.296204280407046 0
347 1 8 145.82320608982624 38.39663709971039 0
348 1 12 152.43367622900624 38.37498069136958 0
349 1 7 159.5673070385173 38.31278253098444 0
350 1 7 166.361090867292 38.2632555194458 0
351 1 12 0.36931450735349286 42.37062119820233 0
352 1 7 7.055206051457924 42.13010819721936 0
353 1 7 13.99659844631944 42.119343209769426 0
354 1 8 20.855103507511163 42.260072219915585 0
355 1 13 27.719018645361636 42.066827741492915 0
356 1 13 34.70041938142637 42.381466332605825 0
357 1 13 41.62970573713505 42.29931788466789 0
358 1 8 48.623103399132646 42.14152542625148 0
359 1 7 55.66995700858267 42.174977558901084 0
360 1 7 62.52592741186162 42.05644666195454 0
361 1 12 69.38386706052374 42.207767669413954 0
362 1 13 76.43441329980999 42.14591179969901 0
363 1 9 83.40384110297636 42.13487468987415 0
364 1 9 90.33740615868025 42.31866493653297 0
365 1 13 97.25155622371332 42.08909434785927 0
366 1 12 104.1212005967789 42.256268838605536 0
367 1 7 110.95682046862134 42.04540601686656 0
368 1 7 117.91306690221818 42.1429511115161 0
369 1 8 124.93659657538919 42.175832502965946 0
370 1 13 131.85085490110467 42.049550477267 0
371 1 13 138.92633762332466 42.35746585802066 0
372 1 13 145.56768398960313 42.09635408669732 0
373 1 8 152.51973396730062 42.31529563230029 0
374 1 7 159.41938399868124 42.30252156998446 0
375 1 7 166.57403847871507 42.137884098498894 0
376 1 15 -3.128640037313811 44.35509100499185 0
377 1 7 3.8309698086823256 44.2307267963864 0
378 1 7 10.513372904026186 44.1126733764983 0
379 1 12 17.428205510835326 44.265574945732055 0
380 1 13 24.63008659965817 44.06585796148119 0
381 1 9 31.269088801486227 44.313983821810794 0
382 1 9 38.15996410159979 44.172241638805744 0
383 1 13 45.225630314919385 44.06889936109443 0
384 1 12 52.170695133554645 44.05786862959336 0
385 1 7 59.07975151828771 44.15309201172195 0
386 1 7 66.2015760707094 44.234424194323736 0
387 1 8 73.1282470971192 44.162661004227786 0
388 1 13 79.6964095782164 44.09023570497419 0
389 1 13 86.6505070394646 44.163166055418785 0
390 1 13 93.83450672463754 44.32339186790367 0
391 1 8 100.58353560427423 44.00678892311934 0
392 1 7 107.50083187390061 44.03616374661639 0
393 1 7 114.64656185468502 44.03232179326003 0
394 1 12 121.4263925714173 44.09591035993599 0
395 1 13 128.37550226795952 44.03562854335134 0
396 1 9 135.3763513107646 44.238589029912 0
397 1 9 142.39318984338345 44.39436601615817 0
398 1 13 149.05082522562932 44.2001812719975 0
399 1 12 156.2296540736462 44.031839583180805 0
400 1 7 162.9830078276775 44.088131497558685 0
401 1 3 -3.4301532297321184 48.1775399132713 0
402 1 7 3.6166515437353333 48.14303546094562 0
403 1 7 10.405805178688002 48.188241126052546 0
404 1 8 17.62044615123866 48.32347905706654 0
405 1 9 24.249215367677458 48.070601511597914 0
406 1 14 31.36382835901259 48.173373173049725 0
407 1 14 38.40582389707322 48.12309321978819 0
408 1 9 45.04191767983664 48.37019056283319 0
409 1 8 52.22366472263674 48.24733403257106 0
410 1 7 59.02928434024656 48.22942252678746 0
411 1 7 66.09004089106158 48.06231574217379 0
412 1 12 73.14129953236765 48.17856510088891 0
413 1 8 79.83460809791018 48.02854278308372 0
414 1 8 86.62956906882815 48.31833611506241 0
415 1 8 93.58359017295679 48.04236511690719 0
416 1 12 100.60076567030987 48.091247642051876 0
417 1 7 107.40615891394242 48.193290158446764 0
418 1 7 114.68477272879359 48.288394793665546 0
419 1 8 121.64111625699073 48.125254188026695 0
420 1 9 128.31382689553308 48.36206354562004 0
421 1 14 135.48121469762145 48.26991538850911 0
422 1 14 142.39840235021333 48.20624522951824 0
423 1 9 148.9704340522575 48.32533217994273 0
424 1 8 156.02402562038415 48.03610278510917 0
425 1 7 162.8809832032414 48.189525840857364 0
426 1 7 0.2877414670055814 50.20542730722846 0
427 1 7 7.122130500655411 50.29373614657108 0
428 1 12 13.945524912877623 50.32756490278386 0
429 1 13 21.181132788080646 50.041400053471456 0
430 1 14 27.75490378420363 50.12751943656895 0
431 1 10 34.83467939999449 50.26457093224922 0
432 1 14 41.78603178201342 50.28452049868247 0
433 1 13 48.82661409606716 50.338179564543886 0
434 1 12 55.790012466302144 50.21564956873833 0
435 1 7 62.64818146537295 50.162883299743044 0
436 1 7 69.31020404390712 50.09041901907297 0
437 1 12 76.5090440592287 50.301170728726966 0
438 1 12 83.22924939752644 50.043800544904215 0
439 1 12 90.10802473882553 50.24199506476321 0
440 1 12 97.01653423070509 50.10470535264694 0
441 1 7 104.14106167491688 50.261952390540635 0
442 1 7 111.09462346407777 50.28660005200328 0
443 1 12 118.15066398053278 50.273836489025506 0
444 1 13 124.78719166835 50.15004725546293 0
445 1 14 132.02917625871197 50.20519895919242 0
446 1 10 138.6938297106605 50.16105572889735 0
447 1 14 145.67646842678607 50.114933021605374 0
448 1 13 152.63172157591697 50.35577051509961 0
449 1 12 159.36131034575388 50.3705961225359 0
450 1 7 166.42176473995917 50.23225203139847 0
451 1 7 0.31569187502952206 54.1072874752843 0
452 1 7 7.077290053546322 54.31815523057003 0
453 1 8 14.211652460102183 54.10145645501345 0
454 1 9 21.145555482225888 54.24552585400507 0
455 1 10 28.00946370679598 54.32111034297386 0
456 1 11 34.81530119408669 54.1136274886884 0
457 1 10 41.78317692798596 54.08183306180814 0
458 1 9 48.65024766798277 54.272235255261144 0
459 1 8 55.800395074278136 54.18851511822181 0
460 1 7 62.421500075705794 54.07850874183861 0
461 1 7 69.4899061759946 54.17369736925942 0
462 1 7 76.35465388875004 54.13358526993747 0
463 1 7 83.26703556313403 54.3530269799715 0
464 1 7 90.37705823288826 54.29505396425992 0
465 1 7 97.09629307582738 54.17642634867144 0
466 1 7 104.20959687392289 54.167667282460386 0
467 1 7 111.17174240685283 54.16273772163865 0
468 1 8 117.99887026337707 54.27792508590805 0
469 1 9 125.0497918112939 54.20222613703774 0
470 1 10 131.75220749910727 54.34981191311353 0
471 1 11 138.89063505776585 54.24832631254844 0
472 1 10 145.66104525862318 54.04799473511776 0
473 1 9 152.7096776679434 54.16540535959894 0
474 1 8 159.69054464252812 54.369507398087876 0
475 1 7 166.67119204953963 54.036507334874344 0
476 1 2 -3.164232393107917 56.36868759505954 0
477 1 7 3.5593075151715947 56.17664065024173 0
478 1 12 10.751123249778706 56.035793479297205 0
479 1 13 17.39596525233704 56.311510811534625 0
480 1 14 24.601756696725754 56.33181761871715 0
481 1 11 31.226491279383193 56.04986163132544 0
482 1 11 38.18233616027292 56.16829774515187 0
483 1 14 45.252282748740356 56.29016389018003 0
484 1 13 52.03457524837669 56.109681772349106 0
485 1 12 59.1043617902657 56.357221919644275 0
486 1 7 66.03474810923579 56.15478370527079 0
487 1 7 72.7634153189396 56.357177245940235 0
488 1 7 79.90505320960816 56.3270629146631 0
489 1 7 86.74474813218494 56.29252950227938 0
490 1 7 93.80117296883736 56.207752596425955 0
491 1 7 100.75029111815918 56.116348167501265 0
492 1 7 107.41818099633619 56.359537321816624 0
493 1 12 114.49511799604161 56.106739063381696 0
494 1 13 121.36178232909968 56.22473572597837 0
495 1 14 128.46319050995757 56.32460203620838 0
496 1 11 135.22877235169105 56.05026804276955 0
497 1 11 142.40547455800632 56.0951089258209 0
498 1 14 148.95932810857644 56.32465150413631 0
499 1 13 156.07477686947342 56.32055839281112 0
500 1 12 162.98216521428392 56.15843289037954 0
501 1 2 -3.323459304523363 60.230418873538184 0
502 1 7 3.4809184022597677 60.00709025457179 0
503 1 12 10.766761941831932 60.0474035770965 0
504 1 13 17.524890302397782 60.34051922565725 0
505 1 14 24.338318274339972 60.375496742952876 0
506 1 11 31.535261273969198 60.21770761342871 0
507 1 11 38.20850338108173 60.36582570149871 0
508 1 14 45.1964913286782 60.02099728126511 0
509 1 13 52.29034406743698 60.100741923752075 0
510 1 12 59.00296293178956 60.31440666255378 0
511 1 7 66.11697903355093 60.06133726436062 0
512 1 7 72.76632072243437 60.22477310746397 0
513 1 7 79.67925107992598 60.026620376545495 0
514 1 7 86.60605620631601 60.28913149986872 0
515 1 7 93.73232737662295 60.23001695663998 0
516 1 7 100.71979556603921 60.03979899996382 0
517 1 7 107.75590383271175 60.00749708045639 0
518 1 12 114.3196944345747 60.27410031811865 0
519 1 13 121.3789135367455 60.04350389562855 0
520 1 14 128.35116175388114 60.12918431543436 0
521 1 11 135.3674709132221 60.39125316957639 0
522 1 11 142.26872716647486 60.34269054965264 0
523 1 14 149.09614509888257 60.21354760907009 0
524 1 13 156.07805690240406 60.01380115893457 0
525 1 12 163.08642631903876 60.058392598942525 0
526 1 7 0.33001682229088963 62.11521504197313 0
527 1 7 7.015004171701926 62.029632156757124 0
528 1 8 13.996504397839036 62.00729366388093 0
529 1 9 21.012052687770918 62.36815837402632 0
530 1 10 27.975085492629077 62.153567513510815 0
531 1 11 34.81183968796739 62.16706904083354 0
532 1 10 41.76807509646417 62.222646474258354 0
533 1 9 48.574010678371664 62.28436622090452 0
534 1 8 55.75343659458519 62.39992707537256 0
535 1 7 62.68595895452761 62.00064817408989 0
536 1 7 69.67392630999024 62.36177699975582 0
537 1 7 76.55091741729666 62.25544336148357 0
538 1 7 83.20481924880322 62.14499423187078 0
539 1 7 90.36577590543799 62.188925930293045 0
540 1 7 97.33050959727944 62.179688686367456 0
541 1 7 104.16907205317891 62.06080330322583 0
542 1 7 111.07095267256558 62.218057090733865 0
543 1 8 118.14040980299619 62.38747524672797 0
544 1 9 124.82555868382912 62.06183689082645 0
545 1 10 132.0063344185187 62.20726831459664 0
546 1 11 138.9256376219755 62.380291630048966 0
547 1 10 145.84073349969125 62.018435223047625 0
548 1 9 152.59153319355934 62.11756291370191 0
549 1 8 159.70378601125117 62.11077196724783 0
550 1 7 166.4163596375643 62.28321114965286 0
551 1 7 0.3745586030340634 66.31692221422153 0
552 1 7 6.946150848055065 66.02500252298196 0
553 1 12 14.126999483175322 66.15438939575913 0
554 1 13 20.89981761256973 66.14459593143489 0
555 1 14 27.90094810261131 66.38143679595571 0
556 1 10 34.916828567525116 66.0248728725955 0
557 1 14 41.83642849742811 66.34039365529304 0
558 1 13 48.5361797354887 66.20599668862718 0
559 1 12 55.4924973804151 66.36360131021131 0
560 1 7 62.44571613345685 66.28090040558149 0
561 1 7 69.64611636910726 66.39838644704764 0
562 1 12 76.2186751678239 66.29777025159663 0
563 1 12 83.26011113113871 66.30657682676635 0
564 1 12 90.44871711285505 66.16955287705832 0
565 1 12 97.14075074274008 66.17857285224025 0
566 1 7 104.0439493950509 66.31631157591809 0
567 1 7 110.95845351970578 66.14178393130963 0
568 1 12 117.8499038396282 66.1332579606842 0
569 1 13 124.75745019034018 66.19111653442076 0
570 1 14 131.66063689576285 66.3391660042216 0