
14309 atoms
14896 bonds
16659 angles
15 atom types
4 bond types
10 angle types

-5.680607966083864 171.52447279080386 xlo xhi
-2.0 148.0 ylo yhi
-4 4 zlo zhi


Masses

1 0.0002287844036697248
2 0.0004575688073394496
3 0.0004956995412844036
4 0.0006482224770642202
5 0.0006863532110091743
6 0.0008388761467889908
7 0.0009913990825688073
8 0.0007626146788990826
9 0.0005338302752293578
10 0.000571961009174312
11 0.0006863532110091742
12 0.0004575688073394496
13 0.0005338302752293578
14 0.0006100917431192661
15 0.0006863532110091742

Pair Coeffs

1 0.40509979849834776 0.44544935907016964 0.5
2 0.40509979849834776 0.44544935907016964 0.5
3 0.40509979849834776 0.44544935907016964 0.5
4 0.40509979849834776 0.44544935907016964 0.5
5 0.40509979849834776 0.44544935907016964 0.5
6 0.40509979849834776 0.44544935907016964 0.5
7 0.40509979849834776 0.44544935907016964 0.5
8 0.40509979849834776 0.44544935907016964 0.5
9 0.40509979849834776 0.44544935907016964 0.5
10 0.40509979849834776 0.44544935907016964 0.5
11 0.40509979849834776 0.44544935907016964 0.5
12 0.40509979849834776 0.44544935907016964 0.5
13 0.40509979849834776 0.44544935907016964 0.5
14 0.40509979849834776 0.44544935907016964 0.5
15 0.40509979849834776 0.44544935907016964 0.5

Bond Coeffs

1 91.5137614678899 0.5
2 106.76605504587155 0.5
3 122.01834862385321 0.5
4 137.27064220183485 0.5

Angle Coeffs

1 6.386721419462421 180
2 10.141877068868565 180
3 15.138895216503519 180
4 21.55518479068567 180
5 6.386721419462421 120
6 7.837729684707014 120
7 17.78606706338608 120
8 12.146528793592294 120
9 10.141877068868565 120
10 21.55518479068567 120

Atoms

1 1 1 -3.3400950450740394 0.3098127460366152 0
2 1 2 3.554751868405146 0.0008115963305599383 0
3 1 3 10.771165360786586 0.35507061248860655 0
4 1 4 17.489293333366874 0.1877097865412954 0
5 1 4 24.519008242726596 0.3537320337876324 0
6 1 3 31.317642775090995 0.3774806585980478 0
7 1 2 38.436911401566995 0.16300513604926392 0
8 1 2 45.42225582407977 0.0236891992626739 0
9 1 2 52.30168642851752 0.26640207085697115 0
10 1 2 59.075546650520714 0.1329586073304487 0
11 1 2 65.88301008570308 0.3933387323037144 0
12 1 3 73.07187212448417 0.05568524950146552 0
13 1 4 79.760854148446 0.36948290578114484 0
14 1 4 86.82469579119908 0.34792252394287393 0
15 1 3 93.86274570050969 0.24355244695413286 0
16 1 2 100.79810916238061 0.18272996398416752 0
17 1 2 107.7292384444267 0.36517486566146906 0
18 1 2 114.48527362636393 0.3392891234081877 0
19 1 2 121.50301073597583 0.1737588358403302 0
20 1 2 128.36375712817073 0.1608621141897921 0
21 1 3 135.22097053629204 0.07641344448017473 0
22 1 4 142.32810011409964 0.04255947996317904 0
23 1 4 149.07258578426922 0.26610870937248465 0
24 1 3 156.11224828232514 0.3546127113579205 0
25 1 2 162.98305563363215 0.20556781885388525 0
26 1 5 0.1764644795157902 2.1339200550732684 0
27 1 5 7.214442931053989 2.3009883246446456 0
28 1 6 14.004139670833 2.328033708081348 0
29 1 7 20.82738747718187 2.3976924961666235 0
30 1 6 27.74493013717305 2.31367735185476 0
31 1 5 35.02698497307606 2.0322008159238183 0
32 1 5 41.626946606471925 2.39081371768524 0
33 1 5 48.80284437245285 2.1568981394510742 0
34 1 5 55.7973679410995 2.2925958236602675 0
35 1 5 62.441277231961536 2.1161837870819764 0
36 1 5 69.45723583661258 2.1479345928844205 0
37 1 6 76.31195642711157 2.307192466957352 0
38 1 7 83.49653072401232 2.220880152261241 0
39 1 6 90.32987204524905 2.095822595011489 0
40 1 5 97.32566704138893 2.3869285609162 0
41 1 5 104.27993836368167 2.2038331857847258 0
42 1 5 110.94378569008816 2.2423952770013873 0
43 1 5 118.03509393519649 2.0216238890615195 0
44 1 5 125.10630804222156 2.160567213714278 0
45 1 5 131.82313899235123 2.139304359297535 0
46 1 6 138.75055371200312 2.354566124523023 0
47 1 7 145.49562563329638 2.2639719930515985 0
48 1 6 152.64955555377549 2.071698692247315 0
49 1 5 159.54309664169585 2.081002098920904 0
50 1 5 166.6078917903678 2.1790419962477725 0
51 1 5 0.17767907848693426 6.38620221536444 0
52 1 5 7.122911130624007 6.0484629968551555 0
53 1 8 14.051235788418799 6.295101489727339 0
54 1 6 20.992158981881236 6.073768623688767 0
55 1 8 27.768785722659256 6.163711684247577 0
56 1 5 34.7264247379833 6.397911648195965 0
57 1 5 41.65742888938996 6.001140915425625 0
58 1 8 48.56127632694106 6.360020790069114 0
59 1 8 55.61837687626445 6.129510507272043 0
60 1 5 62.49828058506824 6.11227790383709 0
61 1 5 69.50589714443785 6.114342421694904 0
62 1 8 76.52773697841906 6.375254844472393 0
63 1 6 83.52410568845742 6.178879311887073 0
64 1 8 90.23655230299663 6.337113874325143 0
65 1 5 97.01217078270696 6.221249923359636 0
66 1 5 104.0071202905375 6.256893571329274 0
67 1 8 111.19596639399342 6.066406212823756 0
68 1 8 117.99685679187687 6.131252082988394 0
69 1 5 124.97447895655976 6.138473253970357 0
70 1 5 131.802417667645 6.324675373756952 0
71 1 8 138.82178033785448 6.189378447162669 0
72 1 6 145.51251709582178 6.225253572152938 0
73 1 8 152.631341275038 6.1391171427071125 0
74 1 5 159.41931213999217 6.1976192698658625 0
75 1 5 166.6620716352012 6.302315335796758 0
76 1 3 -3.1901447292622973 8.370806009512485 0
77 1 5 3.701567714249473 8.207311177215812 0
78 1 5 10.668879132445365 8.28569931777455 0
79 1 8 17.402724095173262 8.14095895767943 0
80 1 8 24.469349309612593 8.272049592402055 0
81 1 5 31.209629917454873 8.082440974222386 0
82 1 5 38.19930231032197 8.362891339456988 0
83 1 8 45.14768508282578 8.30496896040572 0
84 1 6 52.197590229702946 8.083821518408676 0
85 1 8 59.0556426549211 8.042316321778427 0
86 1 5 66.00374816284753 8.316364277971125 0
87 1 5 72.87135287424682 8.323182107881927 0
88 1 8 79.70229711099962 8.068245055331563 0
89 1 8 86.79945145725392 8.207241792084385 0
90 1 5 93.78150929446417 8.303768693642233 0
91 1 5 100.53195904419859 8.364852670303177 0
92 1 8 107.62962139284618 8.105836731080283 0
93 1 6 114.32190143456928 8.161389586682146 0
94 1 8 121.48465685412218 8.228022963088113 0
95 1 5 128.27288720393426 8.018765464994424 0
96 1 5 135.44502894918185 8.138093339618056 0
97 1 8 142.15832054732206 8.370031390338202 0
98 1 8 149.18245107650546 8.16242324876312 0
99 1 5 155.96478731872418 8.092833179680502 0
100 1 5 163.1960487859259 8.310278471441675 0
101 1 9 -3.199257573057798 12.137321105929225 0
102 1 5 3.689537098821341 12.192554969925979 0
103 1 5 10.523723967666971 12.37107453546219 0
104 1 5 17.380311548390974 12.152751088954183 0
105 1 5 24.49493537828644 12.161246155052162 0
106 1 5 31.20141660103654 12.27962538903441 0
107 1 5 38.47214141720423 12.06044330152628 0
108 1 6 45.23232060376949 12.216281927399628 0
109 1 7 52.34270796023435 12.363032346702084 0
110 1 6 59.00629745500825 12.335552765002744 0
111 1 5 66.07328632636782 12.112733364339842 0
112 1 5 72.78535447077556 12.138598111932064 0
113 1 5 79.82167463367686 12.070068226103466 0
114 1 5 86.7539769569999 12.150400828855554 0
115 1 5 93.77560152412913 12.37636759312946 0
116 1 5 100.7508539586122 12.204146888664242 0
117 1 6 107.7490160980804 12.016744998175028 0
118 1 7 114.59266323085852 12.008341946440392 0
119 1 6 121.3735012058436 12.14621825855224 0
120 1 5 128.29898642773796 12.371385640810338 0
121 1 5 135.34421365230924 12.057953175136898 0
122 1 5 142.3417612645213 12.22361811996388 0
123 1 5 149.08848542839803 12.384228855081384 0
124 1 5 156.20568292188437 12.074910977231132 0
125 1 5 162.92216160363284 12.360739855672762 0
126 1 8 0.015452368347308188 14.052889294477673 0
127 1 5 7.1900610293800735 14.09746600372548 0
128 1 5 13.893573682982442 14.027942907698996 0
129 1 5 21.181047530129177 14.305133622615028 0
130 1 5 27.777708500188698 14.26723671043062 0
131 1 5 34.91361671733307 14.377363353945585 0
132 1 8 41.762000774630515 14.134417218292052 0
133 1 7 48.49834904528668 14.24036253525804 0
134 1 7 55.55738315540063 14.192560763511699 0
135 1 8 62.38706266698995 14.261553777701806 0
136 1 5 69.31339978419803 14.027800093900485 0
137 1 5 76.3178330254353 14.143110860783437 0
138 1 5 83.4325321979739 14.142878550408314 0
139 1 5 90.1672279336974 14.231570215697692 0
140 1 5 97.27820850612589 14.22803399215792 0
141 1 8 104.00849194579563 14.05580650498542 0
142 1 7 111.14283164631112 14.32946253097522 0
143 1 7 117.95658767801012 14.37598783164114 0
144 1 8 124.79810896561135 14.082055626758107 0
145 1 5 132.02885579620306 14.333185093794643 0
146 1 5 138.8468402711373 14.314413098387092 0
147 1 5 145.78425014586358 14.178292327613159 0
148 1 5 152.50274564892965 14.192320983774673 0
149 1 5 159.5967006905148 14.110902618280335 0
150 1 8 166.47768517077662 14.265500119108093 0
151 1 8 0.09139584398077774 18.157794293067155 0
152 1 5 6.998539922202862 18.20766009859847 0
153 1 5 13.900662944581377 18.337174713151278 0
154 1 5 20.89758582373631 18.031188695356608 0
155 1 5 27.898600741092373 18.36188740776496 0
156 1 5 34.83513463507604 18.179385019682222 0
157 1 8 41.73464984595617 18.34109039679637 0
158 1 7 48.60643281137562 18.260872366143705 0
159 1 7 55.632081191453 18.18704254173924 0
160 1 8 62.51632145043077 18.35352490063143 0
161 1 5 69.55897003651285 18.399697880330784 0
162 1 5 76.37894721490244 18.05688990560742 0
163 1 5 83.14297502477508 18.270541843388454 0
164 1 5 90.30025837889629 18.365746437584246 0
165 1 5 97.28750919715172 18.00567809594964 0
166 1 8 104.00613098080153 18.24240538006596 0
167 1 7 111.05999555569905 18.391480035616247 0
168 1 7 118.16313027277904 18.386649725550193 0
169 1 8 124.91666443586386 18.31534264563946 0
170 1 5 131.65172398572523 18.28912805505162 0
171 1 5 138.93787744706705 18.061856847850496 0
172 1 5 145.66521430302495 18.18793271739427 0
173 1 5 152.52715015076956 18.236593996694634 0
174 1 5 159.6728605385368 18.290208277954868 0
175 1 8 166.49202595374243 18.152470323141674 0
176 1 9 -3.3718587024868785 20.36863189530472 0
177 1 5 3.6408597280180417 20.1609937463325 0
178 1 5 10.785577948806724 20.107790388481693 0
179 1 5 17.687867868677756 20.170886267930186 0
180 1 5 24.35996960579914 20.080760064101288 0
181 1 5 31.385544186165895 20.226748596651433 0
182 1 5 38.11295146900687 20.084162306675584 0
183 1 6 45.0598049980629 20.366758386822323 0
184 1 7 52.25502301833776 20.13430971321731 0
185 1 6 59.134652848739414 20.0315508907691 0
186 1 5 66.17235713321203 20.219428466996906 0
187 1 5 73.0388801421104 20.24308828393333 0
188 1 5 79.88545402006937 20.266131546441386 0
189 1 5 86.81103386543218 20.172940332334587 0
190 1 5 93.64516837928618 20.265628755311614 0
191 1 5 100.76374156377365 20.318640210466725 0
192 1 6 107.52253813579519 20.338345870226977 0
193 1 7 114.54240059262534 20.091420318924577 0
194 1 6 121.39074481840235 20.307401459222966 0
195 1 5 128.2818503488309 20.304792523079698 0
196 1 5 135.16757388209425 20.114852693359456 0
197 1 5 142.2973806303865 20.235441540141355 0
198 1 5 149.15681028381022 20.01610349189231 0
199 1 5 156.1447686821411 20.3411060265994 0
200 1 5 163.09179785133549 20.364823967653386 0
201 1 3 -3.288495513705739 24.223183320350095 0
202 1 5 3.6631247984408586 24.108933636094793 0
203 1 5 10.571271631710395 24.390880926858138 0
204 1 8 17.448023906487986 24.245636033169188 0
205 1 8 24.287611663920835 24.151186103417217 0
206 1 5 31.318133134084977 24.08490550933305 0
207 1 5 38.197541318557334 24.334346684384254 0
208 1 8 45.062480560839084 24.016939659807335 0
209 1 6 52.04376450018049 24.146025506628582 0
210 1 8 59.168231532064894 24.17637057903081 0
211 1 5 66.21367693463847 24.162784466684553 0
212 1 5 72.97478114493168 24.22618124890152 0
213 1 8 80.00555632505552 24.11002763328808 0
214 1 8 86.96906878361055 24.231784704068083 0
215 1 5 93.68874383116612 24.10308940313434 0
216 1 5 100.55042246619075 24.34579496090632 0
217 1 8 107.73092565328139 24.227567081491454 0
218 1 6 114.45805816403315 24.38048166491883 0
219 1 8 121.57238129962906 24.36388944967135 0
220 1 5 128.40391077023355 24.077916817646518 0
221 1 5 135.38835132440897 24.15337888467914 0
222 1 8 142.17337609620472 24.23260430611009 0
223 1 8 149.34337244633144 24.198037758521494 0
224 1 5 156.26017923939648 24.16681643932132 0
225 1 5 163.20353158192057 24.1074422701017 0
226 1 5 0.3371373838843299 26.03750721999661 0
227 1 5 7.090157903240504 26.196726604981656 0
228 1 8 13.997994606568026 26.178942714685405 0
229 1 6 20.99874340527623 26.37265761348285 0
230 1 8 27.895801516900022 26.150668780990788 0
231 1 5 34.65056439155532 26.196615343296624 0
232 1 5 41.74219781164911 26.06229380718662 0
233 1 8 48.548287645157664 26.1302767662824 0
234 1 8 55.491778125017085 26.04170564458676 0
235 1 5 62.38720532163833 26.11867730472424 0
236 1 5 69.3622125591825 26.301663766355567 0
237 1 8 76.42844073537744 26.14945645293182 0
238 1 6 83.50193065474748 26.333734356711226 0
239 1 8 90.46623849268838 26.118077230729856 0
240 1 5 97.2738957057065 26.305195393722165 0
241 1 5 104.08356667018134 26.060203368393665 0
242 1 8 110.93491967464234 26.235298503775343 0
243 1 8 117.78335064889194 26.362971224885488 0
244 1 5 125.04489285806854 26.023036818731835 0
245 1 5 131.92773154371096 26.208807101998097 0
246 1 8 138.57810212909774 26.29950919290748 0
247 1 6 145.7219018281703 26.288427721447746 0
248 1 8 152.75642013448606 26.282700809517852 0
249 1 5 159.4131533896038 26.26641459136474 0
250 1 5 166.3474028655633 26.016420526533555 0
251 1 5 0.3078114366521693 30.196452076567915 0
252 1 5 7.122523028368974 30.017545896415093 0
253 1 6 14.031248309613137 30.27790664656839 0
254 1 7 21.113278408156557 30.006891576125092 0
255 1 6 28.076137462246066 30.391276531770256 0
256 1 5 34.642136740959096 30.218844315815765 0
257 1 5 41.77055301558604 30.18004378371815 0
258 1 5 48.62272515825849 30.16465647386445 0
259 1 5 55.77675163193914 30.038107815625377 0
260 1 5 62.50820269741155 30.375720101623802 0
261 1 5 69.47931857949625 30.195877219787103 0
262 1 6 76.25990564346844 30.184465923558356 0
263 1 7 83.1717205830741 30.21677349398725 0
264 1 6 90.46398938169685 30.163220518991267 0
265 1 5 97.18013705006994 30.310736682028416 0
266 1 5 104.00207578574057 30.377719555774515 0
267 1 5 111.07178324554208 30.301677178933975 0
268 1 5 117.94715079110371 30.2617219574436 0
269 1 5 124.87561239647987 30.172899234200386 0
270 1 5 131.6740631596529 30.20519790803453 0
271 1 6 138.89252557113105 30.3029864604304 0
272 1 7 145.83071676945886 30.166891314489373 0
273 1 6 152.51185682936216 30.185297703086768 0
274 1 5 159.63399442408402 30.296522733422833 0
275 1 5 166.30739673084142 30.304057019026388 0
276 1 2 -3.1930115516386746 32.381311773518874 0
277 1 5 3.513900044073997 32.14570766632659 0
278 1 8 10.422570871184938 32.07337084101737 0
279 1 7 17.337838290969835 32.23434253202753 0
280 1 7 24.381836629791152 32.377505122736544 0
281 1 8 31.569270220895003 32.223338831725265 0
282 1 5 38.37014475055336 32.261612261320394 0
283 1 5 45.30186173885858 32.115708043840826 0
284 1 5 52.29632832986596 32.243033138103335 0
285 1 5 59.281647997088186 32.13069346063356 0
286 1 5 66.20607552804161 32.28725806187123 0
287 1 8 73.05191691715342 32.211901432068835 0
288 1 7 79.70321662055294 32.177433645801386 0
289 1 7 86.68670753076705 32.116089431347696 0
290 1 8 93.7223120903377 32.32173832381601 0
291 1 5 100.50480779438737 32.086857895898255 0
292 1 5 107.52139189312832 32.36203017092165 0
293 1 5 114.55274516673724 32.05064770578249 0
294 1 5 121.27605638526246 32.209753525268155 0
295 1 5 128.3760212978071 32.39069895996154 0
296 1 8 135.27881586856088 32.33790335476601 0
297 1 7 142.3427761682637 32.01337680278602 0
298 1 7 149.17092782048164 32.29795591458806 0
299 1 8 155.8899381954387 32.322825251216926 0
300 1 5 163.0455457083734 32.37044158229447 0
301 1 2 -3.4416458084322343 36.23960781268557 0
302 1 5 3.6049407394690864 36.031135087959655 0
303 1 8 10.525497369018057 36.387936087153015 0
304 1 7 17.40762889409747 36.39221676102933 0
305 1 7 24.445687211881406 36.276287878598275 0
306 1 8 31.421632056796643 36.005449040144086 0
307 1 5 38.40999833173849 36.257646461484555 0
308 1 5 45.23512174102559 36.01878950613174 0
309 1 5 52.31072699197986 36.23137196566109 0
310 1 5 59.17101478759562 36.138034428317255 0
311 1 5 66.12415223182614 36.179572244048806 0
312 1 8 72.88397157130599 36.23788721631556 0
313 1 7 79.92108797332091 36.12824085399574 0
314 1 7 86.63022582831022 36.09136196390558 0
315 1 8 93.78844574361885 36.29823243463748 0
316 1 5 100.54223916135412 36.02256964801835 0
317 1 5 107.70534162916644 36.10486739226511 0
318 1 5 114.64311725166361 36.36600293481575 0
319 1 5 121.30954404240155 36.118936967734484 0
320 1 5 128.2709287333113 36.177974719899346 0
321 1 8 135.14387611646913 36.03163598594866 0
322 1 7 142.33262715124474 36.31723559124208 0
323 1 7 149.30996721588042 36.27505321780702 0
324 1 8 156.20459563814526 36.21359171203843 0
325 1 5 162.93972489486794 36.39786367412357 0
326 1 5 0.35666197096134766 38.15436424877416 0
327 1 5 7.140693807596449 38.14146834691392 0
328 1 6 13.99712294927017 38.19151219380068 0
329 1 7 21.094535502246984 38.389993841531485 0
330 1 6 27.923125575625516 38.12423776700822 0
331 1 5 34.96082034831355 38.00852064663601 0
332 1 5 41.64445167738574 38.11772923143635 0
333 1 5 48.615032344261174 38.106836035339114 0
334 1 5 55.788012883643106 38.1047377297473 0
335 1 5 62.53962521903957 38.11020110542305 0
336 1 5 69.34318115260828 38.36227470849133 0
337 1 6 76.55845257234083 38.35781005637997 0
338 1 7 83.4511048773343 38.397842624330345 0
339 1 6 90.23276264727888 38.37709197695567 0
340 1 5 97.1297960067487 38.076775585496485 0
341 1 5 104.01376757846754 38.000600233886786 0
342 1 5 111.24553883109967 38.160727489879086 0
343 1 5 118.0506972596425 38.31026223251593 0
344 1 5 124.82972932573331 38.33757136476372 0
345 1 5 131.83512278183238 38.09426794977263 0
346 1 6 138.8816440486058 38.339970944403845 0
347 1 7 145.5032379625645 38.351044750000355 0
348 1 6 152.77515588301375 38.37334044380475 0
349 1 5 159.60589278540877 38.07897519299228 0
350 1 5 166.66668795999715 38.08757441849335 0
351 1 5 0.32875582389610736 42.24645509903344 0
352 1 5 6.986255554631055 42.37772194034329 0
353 1 8 14.232548437418833 42.02107673868577 0
354 1 6 21.025590376086342 42.34737344398232 0
355 1 8 27.84276962078367 42.30564604913564 0
356 1 5 34.96692245691317 42.26282645886761 0
357 1 5 41.7323211271625 42.166428305357485 0
358 1 8 48.871644562607365 42.24174065288286 0
359 1 8 55.628544121435404 42.13542160298383 0
360 1 5 62.401754013424394 42.23720574078823 0
361 1 5 69.6297965885686 42.13204074113803 0
362 1 8 76.59566966872985 42.28031668604012 0
363 1 6 83.15456599276638 42.26862526638942 0
364 1 8 90.43740583878751 42.265424946287524 0
365 1 5 97.02818314142382 42.28648954441259 0
366 1 5 104.19949108452072 42.09207252749642 0
367 1 8 111.07333487268869 42.19966504160478 0
368 1 8 117.79407107912512 42.24328296402501 0
369 1 5 124.9468794922203 42.39900340285316 0
370 1 5 131.7864101638843 42.06643929830055 0
371 1 8 138.78459388573316 42.06092719234166 0
372 1 6 145.65857653127455 42.34596884410268 0
373 1 8 152.52332707658056 42.36960305767922 0
374 1 5 159.4104395950122 42.26013171837744 0
375 1 5 166.27865288578536 42.24290325733296 0
376 1 3 -3.286134398417146 44.199339167812596 0
377 1 5 3.5930081385720856 44.17846651767975 0
378 1 5 10.553184602219497 44.00384771963752 0
379 1 8 17.677068966455316 44.22705178972994 0
380 1 8 24.411305025842797 44.15422992487392 0
381 1 5 31.34964863573836 44.27132481074432 0
382 1 5 38.359502030038946 44.32305655983644 0
383 1 8 45.127197936112076 44.25068565611358 0
384 1 6 51.98140086756867 44.3368642980112 0
385 1 8 58.92147836439667 44.2257584438992 0
386 1 5 66.08491633879567 44.27644466865742 0
387 1 5 72.86051434497985 44.20249136758579 0
388 1 8 79.93311280910238 44.04330900315039 0
389 1 8 86.87968478143078 44.02331886630987 0
390 1 5 93.6962177052311 44.28412270832668 0
391 1 5 100.47309840379604 44.17604376055394 0
392 1 8 107.62569061465936 44.31194866013949 0
393 1 6 114.41365033160858 44.06037190738869 0
394 1 8 121.34606297182877 44.119376837844335 0
395 1 5 128.51747960974535 44.35170032776045 0
396 1 5 135.48309485063413 44.21146895633295 0
397 1 8 142.23805529362096 44.387789019452526 0
398 1 8 149.2451119898822 44.08099595730988 0
399 1 5 156.06331281391329 44.06328363093902 0
400 1 5 162.8336728154426 44.03815317589146 0
401 1 9 -3.1778324957231106 48.37896223722425 0
402 1 5 3.8042584244163464 48.32436880975365 0
403 1 5 10.626486794222405 48.04986845098495 0
404 1 5 17.65900154699151 48.26996095888008 0
405 1 5 24.452957020476145 48.26642704366259 0
406 1 5 31.432143882863574 48.23638401006685 0
407 1 5 38.237665470993754 48.012378357730064 0
408 1 6 45.06029798952879 48.004336080219225 0
409 1 7 52.02994477885102 48.32213690633698 0
410 1 6 59.173101879825865 48.232415874928044 0
411 1 5 66.18021259684986 48.39705867935564 0
412 1 5 72.79391830669242 48.09672473440931 0
413 1 5 80.02682603767377 48.18712386015483 0
414 1 5 86.99860645964162 48.01928476120192 0
415 1 5 93.7516082129849 48.26814159637751 0
416 1 5 100.54076915586325 48.232169758599 0
417 1 6 107.674699595754 48.29663520596322 0
418 1 7 114.6345139081338 48.03413930838858 0
419 1 6 121.56605646173992 48.00171587069793 0
420 1 5 128.48873633158234 48.252951096297345 0
421 1 5 135.10195329900705 48.22428315819562 0
422 1 5 142.0621739695619 48.35686493840187 0
423 1 5 148.9589662786386 48.33836176668108 0
424 1 5 156.28258822175337 48.12090678507626 0
425 1 5 162.85034848179828 48.213503814029096 0
426 1 8 0.1409107223617064 50.34114684038828 0
427 1 5 7.0352369208010614 50.080407749634176 0
428 1 5 14.169660879131884 50.37683963492096 0
429 1 5 20.944697516364663 50.21359821047645 0
430 1 5 27.953290894082187 50.082547183186364 0
431 1 5 34.795745429888534 50.24640885190066 0
432 1 8 41.725913017885695 50.08424219470983 0
433 1 7 48.59579142147395 50.210181619569425 0
434 1 7 55.78825545499917 50.31722442934266 0
435 1 8 62.66009353790293 50.07933534759149 0
436 1 5 69.32041778979841 50.264502694833055 0
437 1 5 76.28689361265883 50.338512635980535 0
438 1 5 83.21008586865132 50.23339393298874 0
439 1 5 90.3714759697681 50.325714273818306 0
440 1 5 97.27973994739529 50.318985312173105 0
441 1 8 104.06253707623736 50.03606735000701 0
442 1 7 111.24738845932885 50.39339143641619 0
443 1 7 117.78114586662954 50.35076890115307 0
444 1 8 124.78697523654381 50.12116845763871 0
445 1 5 131.69337250788024 50.34144117399898 0
446 1 5 138.58930096062133 50.17554382150079 0
447 1 5 145.72011341321573 50.236676080503464 0
448 1 5 152.76977550315107 50.151283547141325 0
449 1 5 159.71698458313858 50.14104036746316 0
450 1 8 166.62298616693568 50.25113079912978 0
451 1 8 0.38259271568179076 54.07259485923377 0
452 1 5 7.094139348226403 54.10107372247217 0
453 1 5 14.192101335976847 54.05932774843591 0
454 1 5 20.961380953547895 54.255729419198836 0
455 1 5 28.108986128816873 54.37536324032491 0
456 1 5 34.9901724222243 54.368144645306145 0
457 1 8 41.94274362162472 54.03483379452017 0
458 1 7 48.86788506522546 54.002962692298965 0
459 1 7 55.48449262491841 54.19555167357359 0
460 1 8 62.40639459370786 54.10761772590185 0
461 1 5 69.39923502966403 54.106944031188576 0
462 1 5 76.51325562169401 54.2032765483131 0
463 1 5 83.51106276408242 54.36361493711414 0
464 1 5 90.15979748861457 54.011076589481966 0
465 1 5 97.30799868058928 54.21764965222656 0
466 1 8 104.28280997497417 54.095529479621156 0
467 1 7 111.22979161772612 54.20041660655567 0
468 1 7 118.00714666927608 54.376113871080925 0
469 1 8 124.88024204248792 54.031746138960195 0
470 1 5 131.85821938158648 54.104369302200844 0
471 1 5 138.80364474103146 54.05158869763324 0
472 1 5 145.79221260864597 54.09912819370473 0
473 1 5 152.5292360717408 54.20384427187339 0
474 1 5 159.69750382685766 54.39509921923081 0
475 1 8 166.53912386354057 54.163923049887345 0
476 1 9 -3.381187112992472 56.289554901699496 0
477 1 5 3.8213424145808124 56.35271228227654 0
478 1 5 10.455539056920642 56.03625748757714 0
479 1 5 17.388569799629714 56.383872526139896 0
480 1 5 24.454494412285385 56.01475412703578 0
481 1 5 31.297034426259895 56.29502310172089 0
482 1 5 38.28038392765978 56.00374426750074 0
483 1 6 45.203211402874274 56.19422102632825 0
484 1 7 52.194086759722374 56.127367609903494 0
485 1 6 59.0730214251887 56.17147406382011 0
486 1 5 66.08507140379159 56.285948513317855 0
487 1 5 72.93351425228693 56.03403251640392 0
488 1 5 79.74649713793318 56.27626275512356 0
489 1 5 86.95068637638164 56.378602807809706 0
490 1 5 93.88929326919744 56.02309101196583 0
491 1 5 100.76513709740108 56.31737941634203 0
492 1 6 107.76890652497812 56.05142323452546 0
493 1 7 114.51878318414904 56.271041921727466 0
494 1 6 121.4634585475053 56.23984261312641 0
495 1 5 128.53611781079968 56.01672231240795 0
496 1 5 135.1954331820386 56.281770432683814 0
497 1 5 142.28440253425183 56.365038010600145 0
498 1 5 149.24692321393135 56.23982049303128 0
499 1 5 156.0126980777273 56.112899167000776 0
500 1 5 162.9562748224191 56.03261549821929 0
501 1 3 -3.20910913271893 60.0646171433998 0
502 1 5 3.5969594426075995 60.180189902594094 0
503 1 5 10.517320608399144 60.052740582889484 0
504 1 8 17.582474157418527 60.3537306565046 0
505 1 8 24.42049642375717 60.153627580913074 0
506 1 5 31.310548501127837 60.25511547586194 0
507 1 5 38.12194782364904 60.02435438489871 0
508 1 8 45.07203262430967 60.3400279192879 0
509 1 6 52.32849000831243 60.06379584505908 0
510 1 8 58.94206150929272 60.31174505956955 0
511 1 5 66.14957370067715 60.01126067623462 0
512 1 5 73.05033400276167 60.27030928994469 0
513 1 8 79.9109092747134 60.30535414996631 0
514 1 8 86.7161291666216 60.08585794059205 0
515 1 5 93.7818908867519 60.21191725604231 0
516 1 5 100.6481660362048 60.137324260361034 0
517 1 8 107.70940205943207 60.36938260785819 0
518 1 6 114.53283709968059 60.37096437577027 0
519 1 8 121.48414868109414 60.18475761941163 0
520 1 5 128.2658748101107 60.11326875414503 0
521 1 5 135.36920125352555 60.35097826130043 0
522 1 8 142.03393841225594 60.173487483103855 0
523 1 8 149.18014844416666 60.26041347823055 0
524 1 5 156.14320514992812 60.25994379097133 0
525 1 5 163.07303753183453 60.2421081813657 0
526 1 5 0.1945406672277712 62.079052926264474 0
527 1 5 6.9917354962774185 62.14450276847529 0
528 1 8 13.9041112939165 62.177790178180366 0
529 1 6 20.965151334353138 62.370643242552966 0
530 1 8 27.732960121300252 62.194217837544564 0
531 1 5 34.883556985048244 62.02996190683452 0
532 1 5 41.92837017426144 62.10637031459167 0
533 1 8 48.74917700427831 62.33071880918949 0
534 1 8 55.82244901215361 62.25119571890107 0
535 1 5 62.68634814401355 62.35143667236205 0
536 1 5 69.58267849934565 62.08835032132605 0
537 1 8 76.32532039702394 62.17419550694754 0
538 1 6 83.2587759901411 62.262931464946405 0
539 1 8 90.39153061209011 62.16222680684108 0
540 1 5 97.0196029656357 62.070389343267344 0
541 1 5 103.9750795661196 62.04310696826914 0
542 1 8 111.15723484913846 62.17724389827807 0
543 1 8 117.85267087764504 62.38456716747512 0
544 1 5 124.97306556427495 62.23850839223073 0
545 1 5 131.78863054764975 62.27909737259297 0
546 1 8 138.74704786165444 62.37195592390293 0
547 1 6 145.65352091986773 62.163297149012614 0
548 1 8 152.45284713516006 62.24330316064668 0
549 1 5 159.40377739285685 62.20142651675087 0
550 1 5 166.61564109910336 62.1115646578606 0
551 1 5 0.12012080467220572 66.24344072829517 0
552 1 5 6.931000282678907 66.37092550416422 0
553 1 6 14.12963507376794 66.22611472069948 0
554 1 7 20.79341762091389 66.08620350196622 0
555 1 6 27.745848677673767 66.12132255817086 0
556 1 5 34.73320470252536 66.14093252359976 0
557 1 5 41.70799037831161 66.35019431918937 0
558 1 5 48.661960862442136 66.3536050692418 0
559 1 5 55.78683684327953 66.38966564998849 0
560 1 5 62.5474317858287 66.03756565069966 0
561 1 5 69.54013513533299 66.18040709032942 0
562 1 6 76.48410990528123 66.21409159358646 0
563 1 7 83.1454117321965 66.3719861244892 0
564 1 6 90.12892674892436 66.11926447855947 0
565 1 5 97.09888968134689 66.3444320357199 0
566 1 5 104.0396952377761 66.17852153830954 0
567 1 5 111.15817278277049 66.10608861883757 0
568 1 5 118.1409199521576 66.22352022148385 0
569 1 5 124.81555711342621 66.21292615295324 0
570 1 5 131.82419699619862 66.21977115149879 0
571 1 6 138.86423871024425 66.38276370577698 0
572 1 7 145.7442198880567 66.1855059768247 0
573 1 6 152.5693605952699 66.22290818274091 0
574 1 5 159.596878211595 66.2501238161171 0
575 1 5 166.31953642591435 66.32360142534446 0
576 1 2 -3.0869803401787315 68.19611289491206 0
577 1 5 3.5293452283078723 68.32021041164006 0
578 1 8 10.639086423642652 68.39402384987334 0
579 1 7 17.37942800023802 68.25020734430909 0
580 1 7 24.442371376218208 68.235438984525 0
581 1 8 31.239636809814154 68.2720039985777 0
582 1 5 38.49538548002322 68.25397004490007 0
583 1 5 45.033796434950254 68.20571907372666 0
584 1 5 52.248011402422925 68.3839287517544 0
585 1 5 59.1294139580098 68.07291029148439 0
586 1 5 66.10419349872915 68.29628807350454 0
587 1 8 73.05779433521593 68.38841127935723 0
588 1 7 79.94470314702126 68.00463579650373 0
589 1 7 86.70344155143778 68.11672430010621 0
590 1 8 93.60307405958103 68.27735935456874 0
591 1 5 100.85286783944382 68.16418372874121 0
592 1 5 107.69745982852488 68.08409544638418 0
593 1 5 114.56973093864504 68.18208258128504 0