
14309 atoms
14896 bonds
16659 angles
32 atom types
7 bond types
20 angle types

-5.680607966083864 171.52447279080386 xlo xhi
-2.0 148.0 ylo yhi
-4 4 zlo zhi


Masses

1 0.0002439449520380961
2 0.0004984962063387182
3 0.0004878899040761922
4 0.0005303151131262958
5 0.00044546469502608856
6 0.00043485839276356266
7 0.0005939529267014514
8 0.0005515277176513478
9 0.0007424411583768142
10 0.0007212285538517624
11 0.0007848663674269178
12 0.0006151655312265032
13 0.0008909293900521771
14 0.0008060789719519698
15 0.0007212285538517625
16 0.0006575907402766069
17 0.0006788033448016588
18 0.0005091025086012441
19 0.0006575907402766068
20 0.0004242520905010367
21 0.0008060789719519699
22 0.0004030394859759848
23 0.00047728360181366623
24 0.0005409214153888217
25 0.00025455125430062206
26 0.0004878899040761922
27 0.0005091025086012441
28 0.0004666772995511404
29 0.0005515277176513476
30 0.0004242520905010367
31 0.000381826881450933
32 0.0005939529267014514

Pair Coeffs

1 0.40509979849834776 0.44544935907016964 0.5
2 0.40509979849834776 0.44544935907016964 0.5
3 0.40509979849834776 0.44544935907016964 0.5
4 0.40509979849834776 0.44544935907016964 0.5
5 0.40509979849834776 0.44544935907016964 0.5
6 0.40509979849834776 0.44544935907016964 0.5
7 0.40509979849834776 0.44544935907016964 0.5
8 0.40509979849834776 0.44544935907016964 0.5
9 0.40509979849834776 0.44544935907016964 0.5
10 0.40509979849834776 0.44544935907016964 0.5
11 0.40509979849834776 0.44544935907016964 0.5
12 0.40509979849834776 0.44544935907016964 0.5
13 0.40509979849834776 0.44544935907016964 0.5
14 0.40509979849834776 0.44544935907016964 0.5
15 0.40509979849834776 0.44544935907016964 0.5
16 0.40509979849834776 0.44544935907016964 0.5
17 0.40509979849834776 0.44544935907016964 0.5
18 0.40509979849834776 0.44544935907016964 0.5
19 0.40509979849834776 0.44544935907016964 0.5
20 0.40509979849834776 0.44544935907016964 0.5
21 0.40509979849834776 0.44544935907016964 0.5
22 0.40509979849834776 0.44544935907016964 0.5
23 0.40509979849834776 0.44544935907016964 0.5
24 0.40509979849834776 0.44544935907016964 0.5
25 0.40509979849834776 0.44544935907016964 0.5
26 0.40509979849834776 0.44544935907016964 0.5
27 0.40509979849834776 0.44544935907016964 0.5
28 0.40509979849834776 0.44544935907016964 0.5
29 0.40509979849834776 0.44544935907016964 0.5
30 0.40509979849834776 0.44544935907016964 0.5
31 0.40509979849834776 0.44544935907016964 0.5
32 0.40509979849834776 0.44544935907016964 0.5

Bond Coeffs

1 97.57798081523845 0.5
2 101.82050172024881 0.5
3 93.33545991022807 0.5
4 110.30554353026953 0.5
5 84.85041810020734 0.5
6 76.3653762901866 0.5
7 118.79058534029028 0.5

Angle Coeffs

1 7.742375579529085 180
2 8.796794609304683 180
3 6.775771773717899 180
4 11.18435055361249 180
5 5.0907376211253945 180
6 3.7111477258004126 180
7 13.968984032368084 180
8 8.235973991874884 120
9 7.655138035295541 120
10 9.847927519308227 120
11 5.813617995467951 120
12 5.017338116541322 120
13 13.968984032368084 120
14 10.795350808556377 120
15 7.742375579529085 120
16 7.226895916793836 120
17 8.796794609304683 120
18 4.292825593754091 120
19 5.0907376211253945 120
20 9.962814192785398 120

Atoms

1 1 1 -3.2449174649047894 0.2628798772608589 0
2 1 2 3.557173717892387 0.15631358703418397 0
3 1 3 10.764524639213574 0.19281380034001297 0
4 1 4 17.35581561203215 0.02815649378286116 0
5 1 5 24.52219750512577 0.322537659694289 0
6 1 6 31.484004514159185 0.013502028983325599 0
7 1 7 38.35853940311622 0.16732726911654697 0
8 1 7 45.374011269643276 0.2735624528005198 0
9 1 8 51.99748820876102 0.267579441129061 0
10 1 8 59.217260576892066 0.37160429540908896 0
11 1 7 66.1602140390228 0.05246869678685533 0
12 1 7 72.75796033398125 0.10701870551065262 0
13 1 6 79.80492415186055 0.011872183256514646 0
14 1 5 86.91385891709041 0.18890126980989536 0
15 1 4 93.91677704529323 0.3055103790731839 0
16 1 3 100.79799402571443 0.09685513473282131 0
17 1 2 107.7098343440513 0.08190150448783591 0
18 1 3 114.6931548973852 0.07259898001085378 0
19 1 3 121.60679932312426 0.3066927567825389 0
20 1 3 128.39382564071607 0.0352098048782604 0
21 1 3 135.32498669486836 0.25986391788894553 0
22 1 3 142.12337798767643 0.29051506278424005 0
23 1 3 149.03154206019897 0.38060044970463525 0
24 1 3 155.88610810578763 0.2231850709275856 0
25 1 3 163.09989235539447 0.15104568247824895 0
26 1 9 0.030308924326586297 2.134770044596881 0
27 1 10 7.002769671511892 2.198727892431702 0
28 1 11 14.12822218622104 2.3621509005702714 0
29 1 9 21.003288628714714 2.3792970221633847 0
30 1 12 27.81575574714039 2.0363237574970636 0
31 1 11 34.804883328277405 2.069405716388691 0
32 1 13 41.776149263232874 2.184080682045524 0
33 1 13 48.69135831642452 2.217686635207677 0
34 1 14 55.672810926369586 2.242568392682068 0
35 1 13 62.663504401211014 2.2217016956336817 0
36 1 13 69.64893811576361 2.3421428467947036 0
37 1 11 76.38711227950658 2.297062804195728 0
38 1 12 83.26732769995915 2.2633536761975717 0
39 1 9 90.45612996019331 2.2033168243727568 0
40 1 11 97.30760166522069 2.1578572645247407 0
41 1 10 103.9452122990302 2.056771864794205 0
42 1 9 111.0707140015022 2.28755897903327 0
43 1 15 117.96815256884942 2.3684887262064556 0
44 1 15 125.10213252023362 2.148232895172647 0
45 1 15 131.87436513970027 2.262987818877937 0
46 1 15 138.56954722265303 2.247030308476804 0
47 1 15 145.61566403410362 2.189583585417482 0
48 1 15 152.6004951410158 2.1569696397175218 0
49 1 15 159.5100118209494 2.0092931068957185 0
50 1 9 166.2920544672927 2.25112075824489 0
51 1 10 0.3507692130541223 6.136036548982993 0
52 1 9 7.160103880597308 6.114081152234721 0
53 1 9 13.94768795670131 6.33111006351531 0
54 1 11 20.90367946904869 6.206779756976251 0
55 1 16 27.80864642506404 6.2374982217835 0
56 1 17 34.7698940626955 6.339572912129018 0
57 1 13 41.804100595002836 6.201937217379009 0
58 1 13 48.75305642438499 6.138333214181351 0
59 1 13 55.78615227292145 6.182613855608742 0
60 1 13 62.72990763953632 6.100170722691898 0
61 1 13 69.4040388455885 6.155923357482403 0
62 1 17 76.22982175498667 6.15908733353854 0
63 1 16 83.17887110772296 6.111585244413299 0
64 1 11 90.37842693447354 6.123663122509743 0
65 1 9 97.34245526845658 6.301558389602579 0
66 1 9 104.31005571072798 6.009587220941261 0
67 1 10 110.8706449792757 6.352988826404904 0
68 1 9 118.0705532487748 6.3437662454269015 0
69 1 9 125.07679500265732 6.295748192118331 0
70 1 9 131.76320563982247 6.006601975623174 0
71 1 9 138.69704730281535 6.348346781597443 0
72 1 9 145.78849913422482 6.077119241428187 0
73 1 9 152.50048839527184 6.001842851718196 0
74 1 9 159.62883711413807 6.048130082123129 0
75 1 10 166.66043472785435 6.257082160245273 0
76 1 3 -3.2050379223287124 8.195382035908994 0
77 1 9 3.7853150375416167 8.191136574068917 0
78 1 10 10.685543328886636 8.144447952200384 0
79 1 11 17.475031638979868 8.266053458457312 0
80 1 9 24.29593763957191 8.292653732147947 0
81 1 12 31.504760799879826 8.008259429340734 0
82 1 11 38.21487341649188 8.333037555067357 0
83 1 13 45.27060609736225 8.355024393338377 0
84 1 13 52.08718182654492 8.367518480531814 0
85 1 13 59.031877759953176 8.19410395864529 0
86 1 13 65.88250669294582 8.350669870255523 0
87 1 11 72.97048406126235 8.019225307271917 0
88 1 12 80.03951900389656 8.25909722157476 0
89 1 9 86.98456928919211 8.012100825574834 0
90 1 11 93.91136487628943 8.042150569411694 0
91 1 10 100.81698040579107 8.397069453900729 0
92 1 9 107.58893184212933 8.201143241266177 0
93 1 9 114.43363866108064 8.363061294430562 0
94 1 11 121.38914032507094 8.212395388741525 0
95 1 11 128.20160812936055 8.00874667256014 0
96 1 11 135.2496224898825 8.229914669889105 0
97 1 11 142.18093149109652 8.382615564786803 0
98 1 11 149.2534787199797 8.021140187313602 0
99 1 11 156.25911663748903 8.306385426408719 0
100 1 9 163.19960997073852 8.358304688779121 0
101 1 18 -3.414198542453938 12.372439347334602 0
102 1 10 3.674068466078556 12.084332838123816 0
103 1 9 10.5218306212129 12.044084178502596 0
104 1 9 17.559976464099055 12.056562849492877 0
105 1 11 24.386310528261397 12.196810078466854 0
106 1 16 31.35462647538084 12.336657415759063 0
107 1 17 38.42504781276673 12.203943348870332 0
108 1 13 45.12799976456383 12.177692192781 0
109 1 13 52.08998326925783 12.126965409113973 0
110 1 13 59.248739821248584 12.152013034978081 0
111 1 13 65.9391333745426 12.154051605640795 0
112 1 17 73.03796581957126 12.090087116514203 0
113 1 16 80.03787011755551 12.299074604029645 0
114 1 11 86.79277739848322 12.39299233704801 0
115 1 9 93.62826896137545 12.06843089592158 0
116 1 9 100.7924573610251 12.340041141024686 0
117 1 10 107.6795223577264 12.0062160710427 0
118 1 11 114.43504664445553 12.316544797531096 0
119 1 11 121.4899520484614 12.165997676886974 0
120 1 11 128.22883993676155 12.232345713804131 0
121 1 11 135.47830391826727 12.162809311201613 0
122 1 11 142.34412454297927 12.29640406188425 0
123 1 11 149.1137603818851 12.012804606395521 0
124 1 11 155.88820166470506 12.097894309602012 0
125 1 11 162.84927925736886 12.269648616472603 0
126 1 9 0.33934276061662055 14.10496433922118 0
127 1 9 7.074109265345516 14.156116369757367 0
128 1 10 13.966747464000616 14.33470424477774 0
129 1 11 20.821766764642568 14.287851051848412 0
130 1 9 27.825158097206224 14.091924794568952 0
131 1 12 34.759875076282015 14.298371872494286 0
132 1 11 41.871650200680804 14.135966279975754 0
133 1 13 48.52196313817179 14.32442194345848 0
134 1 13 55.554595035461126 14.061970247055923 0
135 1 13 62.514933913800085 14.091889986306178 0
136 1 11 69.36180531244412 14.13061503883504 0
137 1 12 76.28251209085481 14.252265554132375 0
138 1 9 83.45736236846986 14.160508798577075 0
139 1 11 90.34882101338367 14.203616055594917 0
140 1 10 97.03667774375566 14.026365017754967 0
141 1 9 104.16338341080647 14.066433294780618 0
142 1 9 111.16721541217771 14.024896816379568 0
143 1 11 117.80176354682675 14.273362087018297 0
144 1 9 124.79112855135097 14.312190827682805 0
145 1 9 131.8307213706797 14.287370926457923 0
146 1 9 138.78023900647463 14.221865483986411 0
147 1 9 145.8312598268941 14.081604204630397 0
148 1 9 152.62448081175253 14.114208033480743 0
149 1 11 159.5665052769361 14.293067284423643 0
150 1 9 166.34566685621698 14.11746652420095 0
151 1 11 0.06332648570557424 18.219035895328723 0
152 1 10 7.180304076600296 18.12418041296472 0
153 1 9 13.872171161723198 18.171873311185127 0
154 1 9 20.906164663966116 18.07471773088194 0
155 1 11 27.731266706256513 18.310309664107397 0
156 1 16 34.90877978833019 18.22712531722783 0
157 1 17 41.83611509722295 18.329702572741084 0
158 1 11 48.60886195168932 18.37913014064081 0
159 1 11 55.77468006572701 18.158618077100137 0
160 1 11 62.446749083382926 18.14760895695055 0
161 1 17 69.40578285798688 18.33568819397397 0
162 1 16 76.3597858239222 18.26658383099566 0
163 1 11 83.1441853155481 18.131656299450746 0
164 1 9 90.0897448593808 18.1243208762617 0
165 1 9 97.37173073069356 18.1775725431746 0
166 1 10 104.16965274550714 18.1050463736408 0
167 1 11 111.00822826568749 18.301923163228803 0
168 1 9 117.80118507578658 18.03330574540495 0
169 1 19 124.97495551775488 18.13565514698631 0
170 1 19 131.7888324846392 18.239617135066347 0
171 1 19 138.8056109119554 18.11722730271489 0
172 1 19 145.59235933136662 18.359627903769773 0
173 1 19 152.54037907289265 18.108444529241126 0
174 1 9 159.51310648784693 18.207493650801535 0
175 1 11 166.4596381598001 18.375061255168724 0
176 1 4 -3.182780750503241 20.092697011902484 0
177 1 9 3.8346441681265295 20.11921273112696 0
178 1 9 10.52087783621564 20.047895537728472 0
179 1 10 17.35360796890841 20.06152277405066 0
180 1 11 24.510700265618063 20.001605322866872 0
181 1 9 31.46292471313754 20.16481869807246 0
182 1 12 38.32550423743497 20.171971260440866 0
183 1 17 45.36861194974759 20.14795400862998 0
184 1 17 52.23598086172637 20.214975571809635 0
185 1 17 59.264075185173766 20.24295539415615 0
186 1 17 66.21366038800754 20.033367100718465 0
187 1 12 73.10571085854797 20.2102487425281 0
188 1 9 79.97420935209604 20.07083700513851 0
189 1 11 86.80680150849864 20.14863469224742 0
190 1 10 93.8674561383065 20.32233786571959 0
191 1 9 100.74519233343135 20.133541545206686 0
192 1 9 107.68396749434271 20.378876086982366 0
193 1 11 114.52575161999896 20.28588579671338 0
194 1 16 121.52270775001124 20.355140685851307 0
195 1 12 128.22926259507392 20.317296173914745 0
196 1 12 135.1292915179748 20.325246336068876 0
197 1 12 142.20223919489388 20.00402092629796 0
198 1 12 149.33795207548883 20.353805524714087 0
199 1 16 156.08336654305708 20.151923789701794 0
200 1 11 163.0235846267312 20.250533026312205 0
201 1 18 -3.1533962332642465 24.30945103892757 0
202 1 11 3.7252792061537767 24.174104063836033 0
203 1 10 10.482647722878843 24.161160581726367 0
204 1 9 17.572415591670577 24.143607752144117 0
205 1 9 24.561524473581866 24.09067411453797 0
206 1 11 31.388481590006176 24.381468322820968 0
207 1 16 38.488895929093765 24.356865122556158 0
208 1 12 45.383021192172144 24.003533421813028 0
209 1 12 52.302168127378195 24.182840492438785 0
210 1 12 59.000137473639 24.305268610494583 0
211 1 12 66.16919285141996 24.296598702735974 0
212 1 16 73.07028330801873 24.3501565617217 0
213 1 11 79.75511886272605 24.218235237937236 0
214 1 9 86.66806836697224 24.133069300486362 0
215 1 9 93.6406309107638 24.385595982150228 0
216 1 10 100.8127308821272 24.223082624989342 0
217 1 11 107.75559509684726 24.27132948192266 0
218 1 9 114.67440395999894 24.168883005511937 0
219 1 12 121.6173985223315 24.267792999986916 0
220 1 17 128.35237364646702 24.290761093047358 0
221 1 17 135.37603734642366 24.369001423915588 0
222 1 17 142.12368751115525 24.06238465393079 0
223 1 17 149.28131829014671 24.17948540519224 0
224 1 12 156.13223921292686 24.22845305521035 0
225 1 9 163.1655845917166 24.359598458888566 0
226 1 11 0.033721579076535724 26.085387730402765 0
227 1 9 7.010784463944298 26.1924313706358 0
228 1 9 13.974981951999379 26.31532489279987 0
229 1 10 20.916691306120896 26.387519756396845 0
230 1 11 27.722530377413204 26.146249795844124 0
231 1 9 34.9563941461026 26.245598621457404 0
232 1 19 41.61699347398632 26.367245033703675 0
233 1 19 48.82636657268912 26.233727148468546 0
234 1 19 55.46338864751911 26.21283127022145 0
235 1 19 62.47587876592154 26.278742964390414 0
236 1 19 69.37592900188457 26.07132077211115 0
237 1 9 76.39220945281704 26.259863702010783 0
238 1 11 83.26432401649568 26.105936671827237 0
239 1 10 90.45349275426574 26.3848533954912 0
240 1 9 97.05793522414231 26.115844538131874 0
241 1 9 104.08412821557765 26.182397185446405 0
242 1 11 111.25071336664762 26.215517139879395 0
243 1 16 117.90313378595887 26.02189273315766 0
244 1 17 124.8365228717496 26.080251254764267 0
245 1 11 131.83473104972268 26.162874509261574 0
246 1 11 138.87720061632004 26.28838099962009 0
247 1 11 145.63298113228035 26.089980684971067 0
248 1 17 152.59155178461833 26.188449179007932 0
249 1 16 159.73917770036397 26.10558645396215 0
250 1 11 166.39171432175135 26.173518130944778 0
251 1 9 0.17226999424961498 30.13400146378999 0
252 1 11 7.241351405356359 30.34018854136198 0
253 1 10 14.21992142857564 30.042288645185316 0
254 1 9 20.964496499313036 30.03754815001198 0
255 1 9 27.756202293510714 30.384787984039527 0
256 1 11 34.696195848026136 30.140340354639946 0
257 1 9 41.698441565018946 30.368793818821135 0
258 1 9 48.60600358538168 30.28740873781108 0
259 1 9 55.70430663871288 30.1904712728831 0
260 1 9 62.432391719642354 30.266143894684205 0
261 1 9 69.62423034639345 30.339990491035884 0
262 1 11 76.2604718732537 30.093078540846978 0
263 1 9 83.26857383457322 30.171495814297536 0
264 1 9 90.08496373077632 30.148570363656503 0
265 1 10 97.18260621540792 30.276276445489035 0
266 1 11 104.25757484726856 30.18475018585473 0
267 1 9 111.06547265578662 30.166870266312113 0
268 1 12 117.85526600489732 30.123749072551234 0
269 1 11 124.85525618156387 30.37375201848027 0
270 1 13 131.93077101967674 30.386268782991564 0
271 1 13 138.74031940889512 30.386209148016054 0
272 1 13 145.65271475667723 30.0337325255805 0
273 1 11 152.68602964925998 30.373543774500483 0
274 1 12 159.6248264534615 30.175574193227433 0
275 1 9 166.38304250034605 30.353119906730527 0
276 1 5 -3.3681497565542453 32.3921439175074 0
277 1 11 3.796232278524873 32.27949961340748 0
278 1 9 10.467604845192279 32.29262459484099 0
279 1 9 17.66123019050612 32.38223651882538 0
280 1 10 24.450344710695582 32.060626884056006 0
281 1 11 31.394491600188797 32.39275454008262 0
282 1 11 38.13393523058919 32.06905708750212 0
283 1 11 45.37279429609214 32.33082040789882 0
284 1 11 52.21266662961352 32.23889268131342 0
285 1 11 59.226159822958586 32.17838277556533 0
286 1 11 65.88245338084532 32.08407423562535 0
287 1 11 72.90064088196367 32.12561676756765 0
288 1 11 79.85324400814862 32.11198866943639 0
289 1 10 86.99541933422789 32.313537550771215 0
290 1 9 93.66128065515534 32.2927164410635 0
291 1 9 100.68852452481248 32.29612618860417 0
292 1 11 107.72969516138578 32.309948068166435 0
293 1 16 114.67936460948995 32.09894568605627 0
294 1 17 121.64048354406411 32.15731225019618 0
295 1 13 128.37983901743067 32.07144477594009 0
296 1 13 135.23739633416736 32.38048359963305 0
297 1 13 142.42751520188693 32.09457398204723 0
298 1 13 149.21867095349418 32.26886257569878 0
299 1 17 156.16249588842956 32.23259537530958 0
300 1 16 162.90472110291347 32.39520764853091 0
301 1 20 -3.373653262645771 36.231988607030324 0
302 1 9 3.6262671292034616 36.295167861889574 0
303 1 11 10.774037427507974 36.26774127643921 0
304 1 10 17.351055454418347 36.38034661617879 0
305 1 9 24.523785207480422 36.19454124699869 0
306 1 9 31.56045300235273 36.17579909287562 0
307 1 11 38.368251722670614 36.09003229925006 0
308 1 11 45.17567792105747 36.214205391621874 0
309 1 11 52.01167814338879 36.31573891294314 0
310 1 11 58.98310801281891 36.32155971841292 0
311 1 11 66.09561904496165 36.377825919556386 0
312 1 11 72.78033151383706 36.280533022559005 0
313 1 9 80.03460789418689 36.173538605118516 0
314 1 9 86.77240684773278 36.112869603801975 0
315 1 10 93.56951061492741 36.31646908921758 0
316 1 11 100.74948622031069 36.09566260355699 0
317 1 9 107.51749589334364 36.156301448481535 0
318 1 12 114.58523334516586 36.14026345561963 0
319 1 11 121.44097771936589 36.38709227839234 0
320 1 13 128.19117378390484 36.01537941455171 0
321 1 13 135.2851429379261 36.07123598795935 0
322 1 13 142.12105400920908 36.148393617116504 0
323 1 13 149.16783852001277 36.371168160256076 0
324 1 11 156.0019279462737 36.111164683356556 0
325 1 12 162.91052320773463 36.174379665352916 0
326 1 16 0.35734559944120425 38.03723788551393 0
327 1 11 7.178263632060604 38.34016473192712 0
328 1 9 13.895766986276142 38.27561883908469 0
329 1 9 21.031401123537968 38.35314558382599 0
330 1 10 27.743959557291337 38.02498710269233 0
331 1 9 34.70221573409262 38.30149050268404 0
332 1 9 41.58425927863179 38.294871229831806 0
333 1 9 48.51822304995722 38.085454584471506 0
334 1 9 55.77125193581578 38.15248169776785 0
335 1 9 62.4626565508221 38.30449462386426 0
336 1 9 69.3580605622981 38.16153041843667 0
337 1 9 76.22000333746185 38.130068965448665 0
338 1 10 83.44167509441885 38.31318594493049 0
339 1 9 90.37443895832715 38.09169653378711 0
340 1 9 97.10103845734128 38.38693507294658 0
341 1 11 104.03735784598192 38.06832551756534 0
342 1 16 111.16105717288838 38.26311380706583 0
343 1 17 117.90999934692539 38.12314454779184 0
344 1 13 124.76763867861888 38.049305210189786 0
345 1 13 131.88066281347244 38.23467542743814 0
346 1 13 138.72628222246001 38.30045286311837 0
347 1 13 145.7876400138838 38.03961173178206 0
348 1 13 152.7389750283734 38.3121255082591 0
349 1 17 159.64744801986905 38.27897246521792 0
350 1 16 166.54716117984 38.385710042248064 0
351 1 12 0.021159096663205725 42.07174206382062 0
352 1 9 7.107087362343644 42.223653511283764 0
353 1 11 13.894835119378909 42.147603714703955 0
354 1 10 20.844419601284805 42.17086279783273 0
355 1 9 27.855477118591757 42.253837090658216 0
356 1 15 34.7306065388611 42.1940552623275 0
357 1 15 41.614498438839604 42.35738854486954 0
358 1 15 48.52968235498442 42.233237642609154 0
359 1 15 55.44413015353071 42.23559215180524 0
360 1 15 62.487455794534654 42.029765013749575 0
361 1 15 69.58129541452442 42.168354969712176 0
362 1 15 76.45681070863432 42.319812978936085 0
363 1 9 83.13929952695484 42.02499276480173 0
364 1 10 90.15381837612378 42.34510151583918 0
365 1 11 97.05894967013147 42.08506841432049 0
366 1 9 103.95194314385016 42.11333975241977 0
367 1 12 110.89522158288968 42.055433158599214 0
368 1 11 118.07148100505496 42.111880963416986 0
369 1 13 124.8945297450884 42.02112340021422 0
370 1 13 131.93020322080702 42.364659739917464 0
371 1 14 138.9371705869971 42.327880080912095 0
372 1 13 145.61176709287923 42.26088051186678 0
373 1 13 152.6057697295609 42.1321472294407 0
374 1 11 159.7437192567474 42.24415122291383 0
375 1 12 166.27812120151248 42.03481771285994 0
376 1 6 -3.091454150402142 44.30949734051925 0
377 1 16 3.834486826933542 44.34745935723971 0
378 1 11 10.744067649878243 44.37726683168314 0
379 1 9 17.605614253758944 44.365319728857145 0
380 1 9 24.29896305688885 44.18704011263452 0
381 1 9 31.2984105356434 44.04324167910589 0
382 1 9 38.281739101190176 44.20925352362852 0
383 1 9 45.16260262787038 44.05760841770703 0
384 1 9 52.07184810105343 44.09674332939907 0
385 1 9 59.060249555254984 44.048506769924856 0
386 1 9 66.04536426919731 44.00897221000025 0
387 1 9 73.04684166249721 44.175494679241616 0
388 1 9 79.9156792518733 44.20602509227976 0
389 1 9 86.85067526849663 44.39358618459142 0
390 1 9 93.55388934167927 44.0637688659975 0
391 1 11 100.64362811577355 44.088514573318896 0
392 1 16 107.43191017766028 44.38808083929899 0
393 1 17 114.69390630182987 44.32774668402902 0
394 1 13 121.50290511154861 44.221085483532036 0
395 1 13 128.21164037484533 44.05392236322798 0
396 1 21 135.37958845906036 44.20764822543518 0
397 1 21 142.37701209922722 44.21589756863737 0
398 1 13 149.13685905613826 44.13937897134485 0
399 1 13 156.10262153295764 44.04678409204515 0
400 1 17 163.0754479549608 44.15068288348382 0
401 1 6 -3.184002399869459 48.08277215821159 0
402 1 16 3.8597295793095427 48.27253144274938 0
403 1 11 10.57254154453728 48.24499125851693 0
404 1 9 17.559954549223658 48.36197338468723 0
405 1 9 24.27445991628839 48.074886042943234 0
406 1 9 31.24770500486556 48.3001142998418 0
407 1 9 38.35725491949638 48.05103460603278 0
408 1 9 45.04506893168641 48.39987377020564 0
409 1 9 52.19200984403758 48.08414871146397 0
410 1 9 59.12608093070074 48.0717821735512 0
411 1 9 65.96531221118248 48.03270059099481 0
412 1 9 72.79888901909833 48.07667395688862 0
413 1 9 80.06084537381459 48.1583295251674 0
414 1 9 86.74622753398063 48.07068032234393 0
415 1 9 93.585071150521 48.32350709682265 0
416 1 11 100.75839610784159 48.343079536077 0
417 1 16 107.44288042173987 48.12360978894391 0
418 1 17 114.57134521730187 48.25709709525033 0
419 1 13 121.60383694994985 48.01798416841288 0
420 1 13 128.38953358021698 48.163426670845965 0
421 1 21 135.26069984288847 48.041642178032326 0
422 1 21 142.4274112189231 48.31157775346401 0
423 1 13 149.33199634166624 48.19620994594169 0
424 1 13 155.8853790136331 48.079053515221126 0
425 1 17 162.82941159900534 48.35813474667105 0
426 1 12 0.06420784093750834 50.25572968743653 0
427 1 9 7.044224477560208 50.144347430247414 0
428 1 11 14.24065138520555 50.380664585222114 0
429 1 10 21.065711534023944 50.135159599893335 0
430 1 9 27.77723284903256 50.28814434159718 0
431 1 15 34.85017805379288 50.194659748185785 0
432 1 15 41.71873145901341 50.14385811006239 0
433 1 15 48.55830557595182 50.33609066039378 0
434 1 15 55.44262244427869 50.23106989498568 0
435 1 15 62.51195035880468 50.05151555949693 0
436 1 15 69.56205123983491 50.36651574750516 0
437 1 15 76.28821451539338 50.138714095169384 0
438 1 9 83.28090813198969 50.19541315638808 0
439 1 10 90.24345886722797 50.11669994385033 0
440 1 11 97.1839267923891 50.12032874899993 0
441 1 9 104.1924018924647 50.39985907626913 0
442 1 12 110.88738488938661 50.30780315654062 0
443 1 11 118.01844059022767 50.37631731171523 0
444 1 13 124.7781670253402 50.24856130850093 0
445 1 13 131.90798066509234 50.024600029760286 0
446 1 14 138.60459124022077 50.171998642081824 0
447 1 13 145.86765794254515 50.144684814024686 0
448 1 13 152.62895953640427 50.16402742502817 0
449 1 11 159.45355870177582 50.033808638170285 0
450 1 12 166.3805965889635 50.34856774926455 0
451 1 16 0.3466188384810715 54.297084802967234 0
452 1 11 7.292640839041494 54.370344813781806 0
453 1 9 13.887773865620659 54.25645397655964 0
454 1 9 20.871234076249657 54.1851710227429 0
455 1 10 28.02714220320455 54.3503164483545 0
456 1 9 34.99346208014598 54.036334173325415 0
457 1 9 41.576980821991896 54.20394468267118 0
458 1 9 48.722418196913516 54.117807567792916 0
459 1 9 55.561328797341794 54.0243360400511 0
460 1 9 62.51926282843645 54.32314914374617 0
461 1 9 69.4830932195603 54.32018157468976 0
462 1 9 76.41404829080687 54.12895628401706 0
463 1 10 83.410956869432 54.0949828072505 0
464 1 9 90.33160088406896 54.06709838701983 0
465 1 9 97.2085933719831 54.384492085082684 0
466 1 11 104.15146237733124 54.21394932764169 0
467 1 16 110.90298717115616 54.089593277890266 0
468 1 17 117.81650181453239 54.228525219140806 0
469 1 13 124.88746319141683 54.130291279170685 0
470 1 13 131.9646427292462 54.03811676829502 0
471 1 13 138.86356646608465 54.32434822573627 0
472 1 13 145.73772773814318 54.31418017115118 0
473 1 13 152.50489697013467 54.34441959647803 0
474 1 17 159.69249178282251 54.35224871781757 0
475 1 16 166.61742041593908 54.37156782639032 0
476 1 20 -3.3371261441364504 56.00155873844417 0
477 1 9 3.693511485112415 56.26641577458634 0
478 1 11 10.515672692352114 56.296518044242376 0
479 1 10 17.492665521764305 56.27501356443974 0
480 1 9 24.40629602138491 56.15419914097889 0
481 1 9 31.525150181578805 56.23244351125986 0
482 1 11 38.11317834104061 56.347833589914046 0
483 1 11 45.256427201361554 56.205367371845966 0
484 1 11 52.282668299618656 56.09596900889672 0
485 1 11 58.93206087465788 56.08608739025931 0
486 1 11 66.11407286362078 56.39303038856125 0
487 1 11 72.93505375443097 56.22205998016413 0
488 1 9 79.92458983535566 56.323510422323544 0
489 1 9 86.81153717478756 56.01727362697703 0
490 1 10 93.77391294136021 56.3568896922279 0
491 1 11 100.60856075728312 56.12747305365256 0
492 1 9 107.53077222204115 56.22081828939861 0
493 1 12 114.3619275577135 56.24649216992588 0
494 1 11 121.32551962541386 56.24107608794446 0
495 1 13 128.4779395348708 56.29730027542677 0
496 1 13 135.3687626950962 56.1565189133713 0
497 1 13 142.20548710138746 56.12745484235772 0
498 1 13 149.0861445167022 56.37113810543717 0
499 1 11 156.07808703245402 56.06169003633447 0
500 1 12 163.06775140783722 56.09522013705623 0
501 1 5 -3.223656436892098 60.04856704012264 0
502 1 11 3.5415965435739123 60.14054209159877 0
503 1 9 10.565774612228024 60.10858441213421 0
504 1 9 17.49007573587692 60.21741657157424 0
505 1 10 24.309785008623063 60.056707048032536 0
506 1 11 31.233995909650062 60.217072413303256 0
507 1 11 38.44413794168604 60.032906020292586 0
508 1 11 45.144526195821534 60.397273081738405 0
509 1 11 52.26044434007537 60.29248917439204 0
510 1 11 58.903559387459794 60.02953065095775 0
511 1 11 66.17354042663104 60.12468433075404 0
512 1 11 72.88316439111735 60.09930730014765 0
513 1 11 79.7657179023692 60.331295899641795 0
514 1 10 86.65975989768695 60.150742897392064 0
515 1 9 93.788372640078 60.3155647204828 0
516 1 9 100.59608734811745 60.22108094324845 0
517 1 11 107.40452208939723 60.278097873524956 0
518 1 16 114.40341439707234 60.35749176074392 0
519 1 17 121.40195798363415 60.25346373947173 0
520 1 13 128.38470133260336 60.08881871432532 0
521 1 13 135.4177246339436 60.00116205532025 0
522 1 13 142.05461539062796 60.15407379092041 0
523 1 13 149.10948586623664 60.30853728831585 0
524 1 17 156.03158179258213 60.191518625026426 0
525 1 16 162.87436123078032 60.34630574548856 0
526 1 9 0.37781946241417946 62.12698772898846 0
527 1 11 7.165618980039922 62.004737783532356 0
528 1 10 14.136446200652438 62.02074576966783 0
529 1 9 20.830427816672515 62.18188888680054 0
530 1 9 27.79902896226579 62.38120826394691 0
531 1 11 34.973249004472386 62.07177009410873 0
532 1 9 41.713331061167004 62.24137738651587 0
533 1 9 48.63351531808557 62.10625178040927 0
534 1 9 55.547854842796326 62.16750257329443 0
535 1 9 62.605236048986356 62.1860855824957 0
536 1 9 69.55510025323514 62.339366982396555 0
537 1 11 76.42780025319914 62.22139228148159 0
538 1 9 83.19656990771566 62.143020148677124 0
539 1 9 90.06908507591947 62.041717960859465 0
540 1 10 97.38185269626987 62.14995505678204 0
541 1 11 103.98932687847372 62.30246388871132 0
542 1 9 111.1350913189818 62.06199047373502 0
543 1 12 118.03159192575343 62.254366886098545 0
544 1 11 124.88878009735431 62.11991099537792 0
545 1 13 131.96854576003176 62.05979668441785 0
546 1 13 138.85327239323283 62.23290214869131 0
547 1 13 145.87549893693463 62.24802968159649 0
548 1 11 152.63918528134224 62.185421673035805 0
549 1 12 159.51690568517947 62.120170447741565 0
550 1 9 166.35881523767915 62.34435726643846 0
551 1 11 0.13743637740955275 66.16164398611747 0
552 1 9 6.957899604421586 66.29579060736337 0