
14309 atoms
14896 bonds
16659 angles
23 atom types
7 bond types
19 angle types

-5.680607966083864 171.52447279080386 xlo xhi
-2.0 148.0 ylo yhi
-4 4 zlo zhi


Masses

1 0.00030312567831560665
2 0.0005557304102452789
3 0.0005809908834382461
4 0.0005304699370523117
5 0.0006062513566312133
6 0.0008588560885608856
7 0.0009598979813327545
8 0.0007072932494030824
9 0.0006062513566312134
10 0.00045468851747341
11 0.0008083351421749512
12 0.0005052094638593446
13 0.0007578141957890168
14 0.00045468851747341006
15 0.0007072932494030823
16 0.0004041675710874756
17 0.0006062513566312133
18 0.0005052094638593446
19 0.0007072932494030823
20 0.00045468851747341006
21 0.0002020837855437378
22 0.0004041675710874756
23 0.00030312567831560665

Pair Coeffs

1 0.40509979849834776 0.44544935907016964 0.5
2 0.40509979849834776 0.44544935907016964 0.5
3 0.40509979849834776 0.44544935907016964 0.5
4 0.40509979849834776 0.44544935907016964 0.5
5 0.40509979849834776 0.44544935907016964 0.5
6 0.40509979849834776 0.44544935907016964 0.5
7 0.40509979849834776 0.44544935907016964 0.5
8 0.40509979849834776 0.44544935907016964 0.5
9 0.40509979849834776 0.44544935907016964 0.5
10 0.40509979849834776 0.44544935907016964 0.5
11 0.40509979849834776 0.44544935907016964 0.5
12 0.40509979849834776 0.44544935907016964 0.5
13 0.40509979849834776 0.44544935907016964 0.5
14 0.40509979849834776 0.44544935907016964 0.5
15 0.40509979849834776 0.44544935907016964 0.5
16 0.40509979849834776 0.44544935907016964 0.5
17 0.40509979849834776 0.44544935907016964 0.5
18 0.40509979849834776 0.44544935907016964 0.5
19 0.40509979849834776 0.44544935907016964 0.5
20 0.40509979849834776 0.44544935907016964 0.5
21 0.40509979849834776 0.44544935907016964 0.5
22 0.40509979849834776 0.44544935907016964 0.5
23 0.40509979849834776 0.44544935907016964 0.5

Bond Coeffs

1 121.25027132624267 0.5
2 101.0418927718689 0.5
3 141.45864988061646 0.5
4 90.93770349468201 0.5
5 40.41675710874756 0.5
6 80.83351421749512 0.5
7 60.625135663121334 0.5

Angle Coeffs

1 14.854803499257683 180
2 8.596529802811164 180
3 23.588877778913822 180
4 6.266870226249337 180
5 0.5501779073799143 180
6 4.401423259039315 180
7 1.8568504374072103 180
8 10.890618401215306 120
9 9.902845897396015 120
10 0.9780940575642917 120
11 8.814938340218847 120
12 1.8568504374072103 120
13 14.854803499257683 120
14 18.229687299625713 120
15 1.011550301336589 120
16 6.266870226249337 120
17 6.790767313946371 120
18 4.401423259039315 120
19 2.8648549605711247 120

Atoms

1 1 1 -3.2251841313164253 0.09284081726265483 0
2 1 2 3.7926398257861886 0.13903148259630377 0
3 1 3 10.497736681512036 0.0941572869646799 0
4 1 1 17.602278250755653 0.3328400259024726 0
5 1 4 24.545610929968483 0.2736903680473132 0
6 1 1 31.50783053681583 0.1977575901582243 0
7 1 1 38.49595082372847 0.3355859203912068 0
8 1 4 45.32894162769547 0.06420073804529483 0
9 1 1 52.13081086421327 0.14462200970468617 0
10 1 3 59.232945989954324 0.1709864112617837 0
11 1 2 66.16967166632092 0.2910639166544795 0
12 1 5 72.92903049803553 0.07769045604240149 0
13 1 5 80.04101037330882 0.02882269124639554 0
14 1 5 86.70566072476643 0.09637890232753499 0
15 1 5 93.91051220537041 0.3074799161294479 0
16 1 5 100.54116883637198 0.012479952967755859 0
17 1 2 107.51439165098199 0.030949085929995814 0
18 1 3 114.53546640774942 0.1385567516351483 0
19 1 1 121.61886240748215 0.07720987333267418 0
20 1 4 128.51787650759417 0.11155561893911128 0
21 1 1 135.2666947650997 0.005729980860585116 0
22 1 1 142.16455504251735 0.3553312391951195 0
23 1 4 149.00557732476682 0.33894835038381377 0
24 1 1 156.0973054727351 0.25127041385081406 0
25 1 3 163.12081612305002 0.007491921926959222 0
26 1 6 0.08331295554901992 2.164872373970752 0
27 1 7 7.308582042289872 2.2829810801126693 0
28 1 2 13.99379508449327 2.2517926580068703 0
29 1 8 20.98782932324687 2.308362817419834 0
30 1 9 27.939501303385512 2.2606785313948095 0
31 1 10 34.65049028852811 2.151008145805427 0
32 1 9 41.87402163306689 2.0733457152317123 0
33 1 8 48.78092047400757 2.136693182226172 0
34 1 2 55.82512859406036 2.058996485429519 0
35 1 7 62.68488717722103 2.207181787806647 0
36 1 6 69.40659811443685 2.270920642176612 0
37 1 7 76.51526856205557 2.305482466266767 0
38 1 7 83.33716633926318 2.358067392019101 0
39 1 7 90.42779536284148 2.1829706729259906 0
40 1 7 96.99666944600182 2.260459378861182 0
41 1 6 104.13187183364752 2.3699773530686503 0
42 1 7 111.01798726310214 2.0508399261282904 0
43 1 2 117.84772681061798 2.0261380333738335 0
44 1 8 124.95202187345136 2.207501881556004 0
45 1 9 131.8373085776928 2.1921215591122296 0
46 1 10 138.71558209835524 2.363213793278271 0
47 1 9 145.64658301377506 2.055168587647411 0
48 1 8 152.49167487605482 2.026970937967118 0
49 1 2 159.42195715814756 2.1745566328241344 0
50 1 7 166.51933234142487 2.0565316353124037 0
51 1 7 0.17583546578383982 6.197869449563033 0
52 1 6 6.966123932344321 6.153511204296596 0
53 1 11 13.906048833789635 6.300761737799734 0
54 1 12 21.10871920453507 6.064051255333377 0
55 1 13 27.915169189729994 6.106777222509712 0
56 1 5 34.81050081830728 6.180226802023821 0
57 1 13 41.89907731634455 6.3746979680838045 0
58 1 12 48.52438651033312 6.353208143678917 0
59 1 11 55.572187436174204 6.236633326639281 0
60 1 6 62.51320355394419 6.2085758202603225 0
61 1 7 69.31852946494438 6.051205274946087 0
62 1 11 76.41454272980198 6.363967311656455 0
63 1 11 83.3902515194038 6.001001730892272 0
64 1 11 90.08574085649276 6.021794456851068 0
65 1 11 97.12395325588464 6.0504325924158024 0
66 1 7 104.28789370894737 6.283418369242301 0
67 1 6 111.1975344700253 6.173920161036281 0
68 1 11 118.06344751256619 6.106389510365547 0
69 1 12 124.77070964803869 6.235262068558979 0
70 1 13 131.8158602653596 6.228941525744473 0
71 1 5 138.58593937850932 6.3283547679553385 0
72 1 13 145.52965041203413 6.071589379888164 0
73 1 12 152.71173828586186 6.3069135224328 0
74 1 11 159.4891321847274 6.09627623045186 0
75 1 6 166.58114571766353 6.359184612094362 0
76 1 3 -3.077867560240617 8.32860637864853 0
77 1 6 3.7348333869309602 8.030625269236872 0
78 1 7 10.605570221311817 8.321716205585698 0
79 1 2 17.484408040101982 8.295849226463032 0
80 1 8 24.555728348241907 8.237338493910878 0
81 1 13 31.4307217284765 8.059876394705281 0
82 1 13 38.159452093798244 8.112730421816869 0
83 1 8 45.131650445058455 8.003085238269012 0
84 1 2 52.1969397543171 8.130895694688839 0
85 1 7 59.07146488926848 8.231087885955034 0
86 1 6 66.159142106782 8.20956550710832 0
87 1 11 72.87353713112596 8.126284640262174 0
88 1 2 79.71682828421045 8.072415366203163 0
89 1 2 86.89607221159665 8.386674628651706 0
90 1 2 93.59042379574323 8.184134860156396 0
91 1 11 100.65912191681946 8.232843460389194 0
92 1 6 107.63943395268976 8.114949066153349 0
93 1 7 114.69693495886207 8.362287845132975 0
94 1 2 121.63759433870756 8.12124028838913 0
95 1 8 128.52237098106775 8.085198994271128 0
96 1 13 135.44608358322233 8.27433966821522 0
97 1 13 142.05674738271057 8.355362795337909 0
98 1 8 149.13657400330592 8.108016942962982 0
99 1 2 156.19309051781107 8.300958716293863 0
100 1 7 162.99430692208077 8.320489655579912 0
101 1 14 -3.1186215024910076 12.366923296596797 0
102 1 7 3.7556359330044367 12.164369828877271 0
103 1 6 10.412487703046821 12.166817271548103 0
104 1 11 17.382231698702064 12.263805273220074 0
105 1 12 24.472469486800733 12.328347497712885 0
106 1 15 31.378542949389995 12.396276900284871 0
107 1 15 38.47720824464503 12.022989532327728 0
108 1 12 45.37748633329698 12.286474830747501 0
109 1 11 52.354220857591415 12.325726784701834 0
110 1 6 58.97061839314194 12.307850634671055 0
111 1 7 66.12299487125377 12.153356648510657 0
112 1 2 72.85186172917071 12.147563079544087 0
113 1 12 80.03920883682821 12.011091832575133 0
114 1 12 86.82792187319647 12.346823374332567 0
115 1 12 93.86603350161994 12.21768550656136 0
116 1 2 100.59844011931303 12.202913440094315 0
117 1 7 107.56099492853741 12.115737844354939 0
118 1 6 114.59797292847179 12.159904780271278 0
119 1 11 121.25363627614496 12.071834361536535 0
120 1 12 128.35968205338528 12.0181013008628 0
121 1 15 135.2392106484518 12.224597247556897 0
122 1 15 142.39924768295873 12.085952547215854 0
123 1 12 149.0659893252444 12.281676482526064 0
124 1 11 156.22554048331975 12.080339847981186 0
125 1 6 163.1213491484137 12.065534502066242 0
126 1 11 0.27856656633825994 14.300068498970278 0
127 1 6 7.149031543902466 14.093731129402059 0
128 1 7 13.950328343226156 14.225076082693784 0
129 1 2 21.146637033074985 14.273436877148214 0
130 1 12 27.98489815045554 14.007046918173431 0
131 1 12 35.0249894859683 14.008499749213474 0
132 1 12 41.93250814050966 14.219670096225649 0
133 1 2 48.63505106946637 14.124276416113112 0
134 1 7 55.59059686413637 14.352382437799767 0
135 1 6 62.58897225365185 14.308565397606566 0
136 1 11 69.35434608966939 14.377582375955509 0
137 1 12 76.44992511142 14.241949200925037 0
138 1 15 83.20449325148347 14.129044112887376 0
139 1 15 90.45342069216818 14.056243645225935 0
140 1 12 97.1332501444604 14.36871931164589 0
141 1 11 104.070319853559 14.272962965840517 0
142 1 6 111.18007032985601 14.27142011314551 0
143 1 7 118.07879452904139 14.234887850248057 0
144 1 2 124.88585890258565 14.135745817728912 0
145 1 12 131.98809853092644 14.09578356889586 0
146 1 12 138.88850045715768 14.125685489970403 0
147 1 12 145.79203728201176 14.144186807510858 0
148 1 2 152.53432270743414 14.0028534725017 0
149 1 7 159.44930623827267 14.136072415953127 0
150 1 6 166.47673425725452 14.162140439724611 0
151 1 2 0.1470610278431208 18.26095718220071 0
152 1 7 7.278596734338816 18.208568806776935 0
153 1 6 14.00913755651056 18.033596949025235 0
154 1 11 20.90897700939488 18.22648040114248 0
155 1 2 27.92739887118033 18.339807788272708 0
156 1 2 34.81076898119689 18.372264576762152 0
157 1 2 41.624797225849385 18.152076706334793 0
158 1 11 48.664711291329496 18.258384815057934 0
159 1 6 55.46537882934064 18.16221272699536 0
160 1 7 62.5353388182611 18.08952967572106 0
161 1 2 69.65824409123547 18.100736531984897 0
162 1 8 76.47754174249759 18.2345394278942 0
163 1 13 83.43767435189977 18.054610121624137 0
164 1 13 90.12836864660974 18.151503430084215 0
165 1 8 97.02080202917789 18.32764947003445 0
166 1 2 104.21624253260647 18.149344326315667 0
167 1 7 110.88428893224413 18.043761633101642 0
168 1 6 118.10192719132873 18.341239512189368 0
169 1 11 125.0765072109259 18.346040932282758 0
170 1 2 131.65861620385957 18.093553880169836 0
171 1 2 138.87231405373566 18.14244616773322 0
172 1 2 145.8817119020559 18.196745784182752 0
173 1 11 152.61341815179762 18.341073605902494 0
174 1 6 159.49265240016203 18.0670965354219 0
175 1 7 166.29536354342522 18.308724985820394 0
176 1 1 -3.430836667987918 20.273207078555426 0
177 1 11 3.706437199377767 20.28865540662669 0
178 1 6 10.51374357631229 20.343431873256176 0
179 1 7 17.610619628580718 20.126237083402135 0
180 1 11 24.568501180322478 20.240766535264058 0
181 1 11 31.414206198535442 20.17706924042246 0
182 1 11 38.17787714439787 20.221732385616807 0
183 1 11 45.303797880726165 20.37860223796222 0
184 1 7 52.28617770357288 20.175470031881353 0
185 1 6 59.01061744297233 20.337465516171584 0
186 1 11 65.92322023937061 20.237371152134397 0
187 1 12 73.00056544692791 20.38736070761627 0
188 1 13 80.04608872766075 20.15447164895536 0
189 1 5 86.83522723360083 20.120405242407557 0
190 1 13 93.61818475370606 20.191994137447306 0
191 1 12 100.59956695874459 20.28003631307018 0
192 1 11 107.47882116774962 20.35730868792644 0
193 1 6 114.4512006879379 20.067680965771732 0
194 1 7 121.5151910615032 20.150145185289755 0
195 1 11 128.4472507042612 20.363322329778317 0
196 1 11 135.2339053438687 20.245746323529307 0
197 1 11 142.37250716392631 20.10389942640897 0
198 1 11 149.0537107340546 20.323368941137048 0
199 1 7 156.19961298902484 20.03725678817443 0
200 1 6 162.9549194678508 20.20917786827848 0
201 1 16 -3.3530639371357536 24.020869758871022 0
202 1 2 3.4710341472957156 24.249527756010476 0
203 1 7 10.424163107977577 24.399589002348804 0
204 1 6 17.541789722365124 24.339213861374613 0
205 1 7 24.531132922295917 24.300119031918555 0
206 1 7 31.450710535813283 24.133780162307545 0
207 1 7 38.306840619018985 24.14443000926189 0
208 1 7 45.16931046413764 24.200432246743325 0
209 1 6 52.26851418427982 24.382576859815046 0
210 1 7 59.278045747183725 24.003692030731525 0
211 1 2 65.99725497225212 24.296356656138382 0
212 1 8 72.94406229632385 24.122401610011295 0
213 1 9 79.86785910130429 24.369957453001064 0
214 1 10 86.78676412009318 24.12848720774518 0
215 1 9 93.6234291535896 24.14342459352634 0
216 1 8 100.61366970256077 24.288747778762506 0
217 1 2 107.60931370598331 24.261890036548433 0
218 1 7 114.69983578248923 24.107988973294113 0
219 1 6 121.58792689983848 24.09339244624205 0
220 1 7 128.25517286841819 24.110526350747254 0
221 1 7 135.14392521993207 24.12983141658967 0
222 1 7 142.13633082106088 24.26016355053445 0
223 1 7 149.0745978888724 24.089023994354392 0
224 1 6 155.96701461246576 24.08445883760296 0
225 1 7 162.95654760005428 24.029233513059108 0
226 1 12 0.2246498608717773 26.117230344699653 0
227 1 11 7.072752993499878 26.19937287560544 0
228 1 6 13.900370227053456 26.095409399972773 0
229 1 6 20.919173496988744 26.119194321164372 0
230 1 6 27.998853666079047 26.362790849014555 0
231 1 6 34.684968845508166 26.384126309125627 0
232 1 6 41.96617415527141 26.222603902620182 0
233 1 6 48.591484398942235 26.323399679342575 0
234 1 6 55.62323791336117 26.217384066049288 0
235 1 11 62.36962889905787 26.057268613987556 0
236 1 12 69.50951660315813 26.277837975365113 0
237 1 13 76.4131339126346 26.17906348466422 0
238 1 10 83.31838819907979 26.197392071360902 0
239 1 10 90.26594844252206 26.00367589216749 0
240 1 13 97.34230420792156 26.35799336020414 0
241 1 12 104.14418782763492 26.05913720964715 0
242 1 11 110.94704303319443 26.231329387468566 0
243 1 6 118.0763556344311 26.191934596040745 0
244 1 6 124.82999774484846 26.152395190799655 0
245 1 6 132.0214611593029 26.23711901915492 0
246 1 6 138.73755404882164 26.39582342457267 0
247 1 6 145.82543743261994 26.399269189004954 0
248 1 6 152.77053950955857 26.191825310701045 0
249 1 6 159.56223709898146 26.183012089509745 0
250 1 11 166.50871180234427 26.392705649876863 0
251 1 12 0.3450892236845555 30.365315299312233 0
252 1 11 7.071658331262757 30.02850829757771 0
253 1 6 14.195744474489203 30.057912103444227 0
254 1 6 20.920770571332678 30.068079408136683 0
255 1 6 28.018814977361075 30.345689427576772 0
256 1 6 34.954652790647486 30.114438825205596 0
257 1 6 41.74848351348255 30.099379831536854 0
258 1 6 48.78739242289274 30.095222185053398 0
259 1 6 55.71347329965778 30.31836941640166 0
260 1 11 62.51269262898659 30.386886103673408 0
261 1 12 69.32641400668084 30.371411517262136 0
262 1 13 76.56977786510006 30.171555564135605 0
263 1 10 83.31350079230262 30.24265471167259 0
264 1 10 90.08655373123285 30.35943765683294 0
265 1 13 97.04004054914517 30.08270578892053 0
266 1 12 104.03030384424957 30.01700034763487 0
267 1 11 110.88777579604452 30.09459015544515 0
268 1 6 118.0304131582963 30.10060304788407 0
269 1 6 125.01815846644126 30.160189009023604 0
270 1 6 131.98593012439719 30.057612246396815 0
271 1 6 138.81665575511542 30.108693058848374 0
272 1 6 145.82587026593188 30.183732599308545 0
273 1 6 152.6340535475074 30.351795702387484 0
274 1 6 159.57175987069024 30.19073661988468 0
275 1 11 166.31218053183508 30.025515669527937 0
276 1 16 -3.4423506868120533 32.22160049571293 0
277 1 2 3.798123246914065 32.10987585131152 0
278 1 7 10.514302334735723 32.27264386163853 0
279 1 6 17.564906734315855 32.35791427820376 0
280 1 7 24.454000881562354 32.126116203635796 0
281 1 7 31.248511775732947 32.157644881394 0
282 1 7 38.5039179600899 32.29641475339959 0
283 1 7 45.15921675868459 32.32998719633156 0
284 1 6 52.2395779487842 32.06490490457811 0
285 1 7 59.246387997532295 32.32966910967945 0
286 1 2 66.01141962188504 32.155485974611835 0
287 1 8 72.77596715947064 32.138294288418116 0
288 1 9 79.81349274983717 32.05275074633274 0
289 1 10 86.7882239490479 32.04410449139298 0
290 1 9 93.67955341157814 32.35770236595755 0
291 1 8 100.83996070941798 32.18261967018328 0
292 1 2 107.46083132117757 32.065552687669545 0
293 1 7 114.35905877970424 32.08840590673233 0
294 1 6 121.24406600419036 32.097495603984086 0
295 1 7 128.5236230979441 32.22458466033622 0
296 1 7 135.4401577194271 32.180891948298736 0
297 1 7 142.22389833495777 32.339454395211526 0
298 1 7 148.98938762761915 32.07312774875088 0
299 1 6 156.05820626114937 32.16006853185823 0
300 1 7 162.87231015163766 32.348742243722526 0
301 1 1 -3.2505559578261765 36.072887570151224 0
302 1 11 3.677985333066655 36.120010236239466 0
303 1 6 10.43470554087423 36.08526926725484 0
304 1 7 17.645123334840513 36.32792771264676 0
305 1 11 24.254234061955138 36.223464734087386 0
306 1 11 31.470402604707978 36.33746784245774 0
307 1 11 38.17696326689285 36.36389611210949 0
308 1 11 45.165491667597976 36.35071990391016 0
309 1 7 52.259442797879686 36.004774490768376 0
310 1 6 59.274025541562786 36.30714344035861 0
311 1 11 66.03706780860352 36.27494475008384 0
312 1 12 72.75236451333838 36.13901214149258 0
313 1 13 80.02254654082228 36.25170876877097 0
314 1 5 86.66287053336158 36.30934984393035 0
315 1 13 93.8062032985407 36.05724190153624 0
316 1 12 100.74941483038633 36.03561261233244 0
317 1 11 107.45293249428826 36.097896934098735 0
318 1 6 114.45519221675231 36.36615992638324 0
319 1 7 121.42568784505426 36.37695696676054 0
320 1 11 128.21479477954057 36.39935837302683 0
321 1 11 135.1057697701202 36.293323188926 0
322 1 11 142.2768629619163 36.310213394441796 0
323 1 11 149.18245395139203 36.14167239163528 0
324 1 7 156.19434835176483 36.12551105996953 0
325 1 6 162.9537133851844 36.09097900791134 0
326 1 2 0.05075580842344723 38.023217410280466 0
327 1 7 6.929016745741658 38.00507746134596 0
328 1 6 13.877698515966607 38.214262431402716 0
329 1 11 21.08832865239912 38.32538897665547 0
330 1 2 27.945396791163727 38.00489829112618 0
331 1 2 34.93952943382977 38.33437691136291 0
332 1 2 41.616250835422505 38.30341370625312 0
333 1 11 48.691025463835906 38.36147347379787 0
334 1 6 55.61451151954306 38.09625015765448 0
335 1 7 62.75335005394072 38.219029309972704 0
336 1 2 69.40131571849184 38.106780365582104 0
337 1 8 76.51750152348937 38.177277442249704 0
338 1 13 83.3600337088352 38.16672131994914 0
339 1 13 90.28417199537661 38.2960253935518 0
340 1 8 97.16235942743288 38.0794653174899 0
341 1 2 104.03236318530509 38.11548561186418 0
342 1 7 111.20985504801604 38.34825549407266 0
343 1 6 117.89241076254537 38.3929243629801 0
344 1 11 124.76523391184413 38.2439615140103 0
345 1 2 132.01291461958272 38.35240049308984 0
346 1 2 138.5679884609321 38.38386211621303 0
347 1 2 145.54480378835615 38.2161710156267 0
348 1 11 152.4358209250956 38.11925219751328 0
349 1 6 159.47716711952143 38.207879034222124 0
350 1 7 166.59379397186788 38.25973811015585 0
351 1 11 0.37323117711608145 42.02076986087518 0
352 1 6 7.312646925113965 42.221092833779224 0
353 1 7 13.896962296630646 42.17240266923772 0
354 1 2 20.89558536811437 42.34725819031347 0
355 1 12 28.042854134514908 42.11392664226673 0
356 1 12 34.71570170078201 42.22110359328115 0
357 1 12 41.944949727757255 42.11979950670354 0
358 1 2 48.78557044497879 42.213177529350965 0
359 1 7 55.6402842088081 42.05611143284712 0
360 1 6 62.72036420740582 42.37870465407785 0
361 1 11 69.46448249380768 42.2326456075376 0
362 1 12 76.41583948090717 42.241179402708234 0
363 1 15 83.23742258409202 42.00909188098438 0
364 1 15 90.10705737890574 42.14708820266248 0
365 1 12 97.1059521690259 42.26566044520097 0
366 1 11 104.04293950278961 42.03887163401724 0
367 1 6 111.09383441908237 42.343295614044955 0
368 1 7 117.91145245569673 42.22125094172393 0
369 1 2 125.02855072246815 42.21534050775969 0
370 1 12 131.67642879615877 42.00625471089801 0
371 1 12 138.66410681961094 42.15171795892689 0
372 1 12 145.5836558401118 42.276667761126745 0
373 1 2 152.6652547253606 42.317492586854215 0
374 1 7 159.46430129135297 42.07943806365229 0
375 1 6 166.31060653121574 42.08018410465499 0
376 1 14 -3.278078609685864 44.141882131555164 0
377 1 7 3.778463881316802 44.11022050338208 0
378 1 6 10.465060719094 44.02554386075114 0
379 1 11 17.578428768189205 44.02984265257785 0
380 1 12 24.250970543876665 44.09363041740158 0
381 1 15 31.192799746714524 44.27014723013682 0
382 1 15 38.112698411746514 44.10759494233351 0
383 1 12 45.272997471469104 44.138809339671454 0
384 1 11 52.17126185924951 44.312036762809754 0
385 1 6 58.89513331532997 44.16783155423427 0
386 1 7 65.93191159013622 44.052428687426115 0
387 1 2 72.87900847033177 44.08960980643033 0
388 1 12 79.98019940029552 44.30621521507236 0
389 1 12 86.74087252084762 44.37316847571837 0
390 1 12 93.66242033820103 44.28446778913638 0
391 1 2 100.5845135022207 44.12479445729045 0
392 1 7 107.51203038113731 44.31157306410532 0
393 1 6 114.45113130590524 44.37183120185873 0
394 1 11 121.29973095662521 44.310375599554085 0
395 1 12 128.28298466043495 44.09625330871857 0
396 1 15 135.23711622960752 44.35996780881702 0
397 1 15 142.09523807488904 44.3798145981925 0
398 1 12 148.9700095264044 44.083405726748694 0
399 1 11 156.14203450732663 44.275786975968984 0
400 1 6 163.13070725047476 44.204311357014035 0
401 1 3 -3.344915302379084 48.168414904565616 0
402 1 6 3.6567429509250995 48.11384141542162 0
403 1 7 10.494875307483518 48.14423856316892 0
404 1 2 17.352624064819707 48.01495303033822 0
405 1 8 24.49782045524572 48.334891824236706 0
406 1 13 31.207191263233128 48.24411776343844 0
407 1 13 38.165037399177976 48.156312940255845 0
408 1 8 45.040396908464565 48.37475830695732 0
409 1 2 52.178317645892704 48.24775821732383 0
410 1 7 59.002764649009336 48.32411513725883 0
411 1 6 65.91187170213328 48.222675193947246 0
412 1 11 72.97493713911614 48.17184129420056 0
413 1 2 79.68229020468492 48.256168569815074 0
414 1 2 86.8411987250392 48.10614444663641 0
415 1 2 93.66411816520609 48.176187858456316 0
416 1 11 100.61804874530561 48.24056717495756 0
417 1 6 107.70508137506552 48.1276060945828 0
418 1 7 114.66863156981397 48.016693378728775 0
419 1 2 121.3485712410909 48.28668377678913 0
420 1 8 128.4694777434627 48.1021310968445 0
421 1 13 135.26845797784745 48.1003524633853 0
422 1 13 142.26389259294976 48.2670612125818 0
423 1 8 149.01086509054494 48.13974764697672 0
424 1 2 156.05729616964177 48.361753821816734 0
425 1 7 162.93803236369627 48.03290490339582 0
426 1 7 0.3039483437349144 50.093077669519964 0
427 1 6 6.9492971729460065 50.11711624242247 0
428 1 11 13.868357244873625 50.247998567653795 0
429 1 12 20.880016138411612 50.37845904291158 0
430 1 13 28.054078355546586 50.38985904235007 0
431 1 5 34.87882560940924 50.110218603614825 0
432 1 13 41.612367458735115 50.390916864967785 0
433 1 12 48.842612819221664 50.26156001097659 0
434 1 11 55.59835998632595 50.37518843531031 0
435 1 6 62.475880124446036 50.07712189519427 0
436 1 7 69.38400027323459 50.23764337907643 0
437 1 11 76.33594029069981 50.08821579776072 0
438 1 11 83.1998204212587 50.13504846300363 0
439 1 11 90.14429805030613 50.33205399114246 0
440 1 11 97.38185410919326 50.15961934590462 0
441 1 7 104.25288532565528 50.19315823513308 0
442 1 6 111.05492589881982 50.05601749398133 0
443 1 11 118.02510750936342 50.17589675529308 0
444 1 12 124.8678178469199 50.00203149783837 0
445 1 13 131.8953243063306 50.23709867736382 0
446 1 5 138.93518420896595 50.186781516888466 0
447 1 13 145.83577678276464 50.23056613327729 0
448 1 12 152.57914190408627 50.24946934483952 0
449 1 11 159.70485156198558 50.15635760574053 0
450 1 6 166.65490215793812 50.04069575462946 0
451 1 6 0.03297808287277491 54.338387188121764 0
452 1 7 7.304747389019815 54.28211118632051 0
453 1 2 13.952696156615051 54.08288363588559 0
454 1 8 21.08692797181499 54.137918424474854 0
455 1 9 27.75199449124613 54.195415182491416 0
456 1 10 34.66048547342041 54.32188414048648 0
457 1 9 41.905518992594416 54.14203180275265 0
458 1 8 48.89405419522499 54.16853763272257 0
459 1 2 55.6691122496111 54.14718159182817 0
460 1 7 62.43161676592204 54.0435923239331 0
461 1 6 69.38345212336196 54.02920463001944 0
462 1 7 76.37987500640311 54.06726515308654 0
463 1 7 83.50696921639258 54.376125880588 0
464 1 7 90.42635707556076 54.09093926819927 0
465 1 7 97.16657719305235 54.03547022176657 0
466 1 6 104.18001846816499 54.053799293104554 0
467 1 7 111.196444497981 54.248603837514416 0
468 1 2 117.95656427973339 54.34662221507832 0
469 1 8 124.75525607174548 54.16984872026137 0
470 1 9 131.86025602693786 54.25917563660738 0
471 1 10 138.59402533855854 54.352488441774966 0
472 1 9 145.72560857938825 54.00510575854678 0
473 1 8 152.44571367261943 54.37925161230486 0
474 1 2 159.37132660866152 54.31186827403437 0
475 1 7 166.4177488976179 54.29587122181157 0
476 1 2 -3.13456075791399 56.28506353797724 0
477 1 6 3.522026515740092 56.25869436591903 0
478 1 11 10.483430959208839 56.37934789020686 0
479 1 12 17.647730455158946 56.30617268424689 0
480 1 13 24.336854919834895 56.13165741292324 0
481 1 10 31.46001904333292 56.132280220280094 0
482 1 10 38.158741912248324 56.10361022625563 0
483 1 13 45.120064007468706 56.23846799786184 0
484 1 12 52.14391686538546 56.278730101429325 0
485 1 11 59.2021240958335 56.029868014276275 0
486 1 6 66.17002340816875 56.209374913722186 0
487 1 6 72.98982986828452 56.17830887811584 0
488 1 6 79.96641249673492 56.31882126410741 0
489 1 6 86.73258558482915 56.3911312916376 0
490 1 6 93.71187657189562 56.393591386704294 0
491 1 6 100.71438993069467 56.25952122567183 0
492 1 6 107.41740256782036 56.163390602588024 0
493 1 11 114.54446365745841 56.015232529897126 0
494 1 12 121.2577313868985 56.033567736116254 0
495 1 13 128.33192577287178 56.239584220958065 0
496 1 10 135.12718305143977 56.29246093485883 0
497 1 10 142.06300239775385 56.030060953863014 0
498 1 13 149.2800042911253 56.13976108324047 0
499 1 12 156.1502248877207 56.26328492806501 0
500 1 11 163.03774992549629 56.15528439484136 0
501 1 2 -3.246740255493289 60.180413799622976 0
502 1 6 3.7912685819216305 60.308447881542584 0
503 1 11 10.48093683715031 60.082672847219655 0
504 1 12 17.374656386469614 60.350537445112266 0
505 1 13 24.439482533468446 60.20302991138845 0
506 1 10 31.27023861236035 60.24215884714382 0
507 1 10 38.37983473654604 60.02881577437881 0
508 1 13 45.123825786888084 60.35214905820646 0
509 1 12 52.224869260169136 60.359577546135604 0
510 1 11 59.286576663324176 60.390844366896346 0
511 1 6 65.95334524383408 60.003777337507735 0
512 1 6 72.93746154705092 60.18648490981944 0
513 1 6 79.78538458677626 60.098101417111884 0
514 1 6 86.83770123987068 60.11678708664635 0
515 1 6 93.91948248273756 60.188337100476296 0
516 1 6 100.67806421302775 60.18382104889499 0
517 1 6 107.50249595009785 60.17058978159349 0
518 1 11 114.61537985905544 60.373233961837585 0
519 1 12 121.63186137264957 60.23085603618953 0
520 1 13 128.28971346353092 60.11762164434544 0
521 1 10 135.1885886069996 60.146520633388306 0
522 1 10 142.03715965895492 60.26236531607024 0
523 1 13 149.2697897091009 60.0471451442732 0
524 1 12 155.88893532190082 60.008584121836016 0
525 1 11 162.97832985639158 60.339070765367346 0
526 1 6 0.04157095317426416 62.13005673095614 0
527 1 7 7.28171778570172 62.067154244724826 0
528 1 2 13.912446009221613 62.06926976381499 0
529 1 8 21.16177219413769 62.264322562497505 0
530 1 9 27.908595627906873 62.11662566565964 0
531 1 10 34.83805608803152 62.25535378945009 0
532 1 9 41.74551626214809 62.26451092854306 0
533 1 8 48.840533404225056 62.38231446910432 0
534 1 2 55.604650562060144 62.308752852978216 0
535 1 7 62.497724004444486 62.26454846140926 0
536 1 6 69.4068769177715 62.34301672906426 0
537 1 7 76.60653222883204 62.06204228851275 0
538 1 7 83.45464645398572 62.391335442161996 0
539 1 7 90.32971485661763 62.01666377580986 0
540 1 7 97.0495705050452 62.080608227198674 0
541 1 6 104.15219737936896 62.04629397964329 0
542 1 7 111.01879949181136 62.047570523267666 0
543 1 2 118.03404755972272 62.09770866256171 0
544 1 8 125.06003510182508 62.32503763034221 0
545 1 9 131.77796971120077 62.106817477104194 0
546 1 10 138.62921111167304 62.327570765540415 0
547 1 9 145.52802486894322 62.11916653404191 0
548 1 8 152.54424324198146 62.13191524309328 0
549 1 2 159.54738174369328 62.179577807508444 0
550 1 7 166.3811335478876 62.3797342368939 0
551 1 7 0.18485990854134313 66.17909916190553 0
552 1 6 7.256235424058589 66.31104753670593 0
553 1 11 13.922263884275628 66.37837152506064 0
554 1 12 20.90054307092879 66.39917222859508 0
555 1 13 28.00864244179538 66.33635135027244 0
556 1 5 34.99783597157606 66.01831084868918 0
557 1 13 41.64225617920613 66.16806438670547 0
558 1 12 48.599785962421585 66.13147425649097 0
559 1 11 55.701405244778805 66.33113483163265 0
560 1 6 62.49482617798083 66.24689678199714 0
561 1 7 69.38148068446931 66.11792865278002 0
562 1 11 76.30773118717238 66.383260970454 0
563 1 11 83.39194257710128 66.0871132496001 0
564 1 11 90.19643772357031 66.11689686319127 0
565 1 11 97.26005330656872 66.1837949418373 0
566 1 7 104.02578765133053 66.09158201314237 0
567 1 6 111.05955637945551 66.37550201087144 0
568 1 11 118.00682778058665 66.1360182111301 0
569 1 12 124.7881031281998 66.36751709493004 0