
14309 atoms
14896 bonds
16659 angles
31 atom types
9 bond types
26 angle types

-5.680607966083864 171.52447279080386 xlo xhi
-2.0 148.0 ylo yhi
-4 4 zlo zhi


Masses

1 0.00015967299336839698
2 0.0002661216556139949
3 0.00047901898010519096
4 0.0006386919734735879
5 0.0006919163045963868
6 0.000691916304596387
7 0.00023950949005259548
8 0.0003459581522981934
9 0.00031934598673679396
10 0.00042579464898239187
11 0.0005322433112279898
12 0.000851589297964784
13 0.0009580379602103818
14 0.001170935284701578
15 0.000425794648982392
16 0.0007451406357191859
17 0.0010644866224559797
18 0.0009580379602103819
19 0.00037257031785959294
20 0.00053224331122799
21 0.000638691973473588
22 0.000585467642350789
23 0.00031934598673679396
24 0.000212897324491196
25 0.000425794648982392
26 0.00053224331122799
27 0.0006386919734735879
28 0.0007451406357191859
29 0.000851589297964784
30 0.000266121655613995
31 0.00037257031785959294

Pair Coeffs

1 0.40509979849834776 0.44544935907016964 0.5
2 0.40509979849834776 0.44544935907016964 0.5
3 0.40509979849834776 0.44544935907016964 0.5
4 0.40509979849834776 0.44544935907016964 0.5
5 0.40509979849834776 0.44544935907016964 0.5
6 0.40509979849834776 0.44544935907016964 0.5
7 0.40509979849834776 0.44544935907016964 0.5
8 0.40509979849834776 0.44544935907016964 0.5
9 0.40509979849834776 0.44544935907016964 0.5
10 0.40509979849834776 0.44544935907016964 0.5
11 0.40509979849834776 0.44544935907016964 0.5
12 0.40509979849834776 0.44544935907016964 0.5
13 0.40509979849834776 0.44544935907016964 0.5
14 0.40509979849834776 0.44544935907016964 0.5
15 0.40509979849834776 0.44544935907016964 0.5
16 0.40509979849834776 0.44544935907016964 0.5
17 0.40509979849834776 0.44544935907016964 0.5
18 0.40509979849834776 0.44544935907016964 0.5
19 0.40509979849834776 0.44544935907016964 0.5
20 0.40509979849834776 0.44544935907016964 0.5
21 0.40509979849834776 0.44544935907016964 0.5
22 0.40509979849834776 0.44544935907016964 0.5
23 0.40509979849834776 0.44544935907016964 0.5
24 0.40509979849834776 0.44544935907016964 0.5
25 0.40509979849834776 0.44544935907016964 0.5
26 0.40509979849834776 0.44544935907016964 0.5
27 0.40509979849834776 0.44544935907016964 0.5
28 0.40509979849834776 0.44544935907016964 0.5
29 0.40509979849834776 0.44544935907016964 0.5
30 0.40509979849834776 0.44544935907016964 0.5
31 0.40509979849834776 0.44544935907016964 0.5

Bond Coeffs

1 63.869197347358785 0.5
2 42.579464898239195 0.5
3 85.15892979647839 0.5
4 106.44866224559799 0.5
5 127.73839469471757 0.5
6 149.02812714383717 0.5
7 170.31785959295678 0.5
8 53.22433112279899 0.5
9 74.51406357191858 0.5

Angle Coeffs

1 2.1711664979876217 180
2 0.6433085919963325 180
3 5.14646873597066 180
4 10.051696749942698 180
5 17.369331983900974 180
6 27.581855881842756 180
7 41.17174988776528 180
8 1.2564620937428372 180
9 3.4477319852303445 180
10 0.9925332562229127 120
11 6.8074983280035175 120
12 17.369331983900974 120
13 21.31549506432212 120
14 16.158457569766593 120
15 0.8509372910004397 120
16 2.664436883040265 120
17 2.1711664979876217 120
18 3.0539484806858863 120
19 12.734114357698658 120
20 10.051696749942698 120
21 33.03370809708419 120
22 27.58185588184274 120
23 1.2092266766848352 120
24 1.5917642947123323 120
25 1.2564620937428372 120
26 3.4477319852303423 120

Atoms

1 1 1 -3.1577137365435877 0.06088141927568694 0
2 1 2 3.5656528411036503 0.06925801505973261 0
3 1 3 10.748536319298621 0.21654528862808356 0
4 1 4 17.672165468780985 0.3768067793295296 0
5 1 5 24.272781365396902 0.1808968195027275 0
6 1 6 31.384500549391664 0.31746820000194337 0
7 1 7 38.1222265507106 0.31173590014395286 0
8 1 8 45.35161481626765 0.28939469180701755 0
9 1 8 52.21654169135424 0.11125528966000925 0
10 1 7 59.238711260795846 0.2551100416091969 0
11 1 6 66.20741720396855 0.1762802708511443 0
12 1 5 72.7796971145976 0.39181024873937426 0
13 1 4 79.91446754689548 0.19286319624793924 0
14 1 3 86.97254244906848 0.24245520350778005 0
15 1 2 93.78839659112485 0.3556654318255452 0
16 1 9 100.5933674719281 0.35139395795390593 0
17 1 9 107.43905876985953 0.0042411172578032735 0
18 1 9 114.65613066152407 0.02620785000934669 0
19 1 9 121.50115359928704 0.29457293307189786 0
20 1 9 128.525856149127 0.3283796744228799 0
21 1 9 135.46795536613038 0.11518492028095442 0
22 1 9 142.10616352535757 0.2793732439200905 0
23 1 2 149.13442942309217 0.19996683316148728 0
24 1 3 156.1598502864216 0.38202784340373674 0
25 1 4 163.183265381164 0.10549140870197166 0
26 1 10 0.03281332946822468 2.30170064459104 0
27 1 11 7.080822709773069 2.2542888467934366 0
28 1 12 14.227314360720879 2.0280070278804683 0
29 1 13 21.122765460210406 2.24616992602787 0
30 1 14 27.78575326895653 2.047031679259193 0
31 1 4 35.02170696497379 2.0506020954254196 0
32 1 15 41.713944823021166 2.393059523032778 0
33 1 11 48.72795904080038 2.0963970398271514 0
34 1 15 55.60021415522365 2.2410880379322693 0
35 1 4 62.63032465759003 2.3165716865876416 0
36 1 14 69.45106612110393 2.0778065959119885 0
37 1 13 76.47654780576956 2.252998236773939 0
38 1 12 83.39133787977148 2.308951681959981 0
39 1 11 90.2280623227705 2.304305590869384 0
40 1 10 97.07985153413935 2.335210435478009 0
41 1 11 104.30902723703974 2.386474719875247 0
42 1 11 110.87590544657519 2.265039956521949 0
43 1 11 117.95692909132666 2.3557311711885616 0
44 1 11 125.03149131419067 2.3896549867866277 0
45 1 11 131.91622930171377 2.3627937160068533 0
46 1 11 138.944402069574 2.3642197032128034 0
47 1 10 145.56160545100045 2.24056011416099 0
48 1 11 152.60809605691216 2.111709587338385 0
49 1 12 159.6719374452534 2.1099778241269633 0
50 1 13 166.3035990966207 2.263918764321236 0
51 1 11 0.3102935672032098 6.280819330966594 0
52 1 10 6.94095642361967 6.214522022370496 0
53 1 16 14.040512889471154 6.245993752423072 0
54 1 13 20.83880838745539 6.091253259185703 0
55 1 17 28.08135342643486 6.171808368136638 0
56 1 18 34.649813788962 6.317616143572442 0
57 1 19 41.83795913605745 6.370194770154087 0
58 1 15 48.625932305191135 6.371099714508396 0
59 1 19 55.43332427447168 6.29962841126946 0
60 1 18 62.57477162382207 6.344377728250651 0
61 1 17 69.55822275865222 6.300693149256722 0
62 1 13 76.53996879951096 6.274479686113669 0
63 1 16 83.37644338388996 6.2063533367980925 0
64 1 10 90.23442212863365 6.277511055223057 0
65 1 11 96.99891801960607 6.312201803693049 0
66 1 16 103.95126016540974 6.284509007836441 0
67 1 16 110.89242097711006 6.321896234172451 0
68 1 16 118.06984563868622 6.357954486615831 0
69 1 16 125.03026938565772 6.093239181198757 0
70 1 16 132.0214121385919 6.147128860214617 0
71 1 16 138.76950549728159 6.038216491041793 0
72 1 11 145.68705248517838 6.027485736789284 0
73 1 10 152.55240612332338 6.078784603914379 0
74 1 16 159.45667552336045 6.076753186127433 0
75 1 13 166.50957621613756 6.092027519305959 0
76 1 3 -3.3973236568958747 8.04637965124595 0
77 1 10 3.6759416563878187 8.077742784909066 0
78 1 11 10.571465524696006 8.08917736424017 0
79 1 12 17.50924130651458 8.1464720022223 0
80 1 13 24.63328308450064 8.382556150739534 0
81 1 14 31.190590202188396 8.023032593047876 0
82 1 4 38.15347689316431 8.350434821571243 0
83 1 19 45.2053013214018 8.102839194726982 0
84 1 19 51.9739944262958 8.29549899605855 0
85 1 4 59.017791143587615 8.217715186116425 0
86 1 14 66.13281658888059 8.103809690689399 0
87 1 13 72.75740103893197 8.271951730311 0
88 1 12 79.69728218318548 8.250700200700967 0
89 1 11 86.7739879294623 8.22362028745012 0
90 1 10 93.81017760031243 8.232891428121155 0
91 1 16 100.69166723778058 8.110834204873404 0
92 1 12 107.50460118198536 8.368514442937558 0
93 1 12 114.44498803377695 8.22778187704302 0
94 1 12 121.5800412803112 8.13358935382011 0
95 1 12 128.4098138119307 8.03335787603169 0
96 1 12 135.16758589851366 8.16614377488831 0
97 1 16 142.3760815016162 8.078875776709818 0
98 1 10 148.9692138121417 8.170295024849931 0
99 1 11 156.23903099396614 8.093201903645229 0
100 1 12 163.06067834647538 8.292209244305136 0
101 1 20 -3.3002126092796007 12.313328962529969 0
102 1 11 3.526396157764947 12.077716342399217 0
103 1 10 10.789074672637977 12.001072045698232 0
104 1 16 17.41269363118328 12.001122661657794 0
105 1 13 24.297073330644793 12.240472598213229 0
106 1 17 31.216210097528705 12.135154115399729 0
107 1 18 38.322680826305714 12.06316005865072 0
108 1 21 45.31994020510311 12.168907691152093 0
109 1 21 52.08264376704808 12.278117894907226 0
110 1 18 59.00245721116983 12.06935511461544 0
111 1 17 65.95180488344664 12.170385022317745 0
112 1 13 73.13544198611777 12.01523221696674 0
113 1 16 79.87015396312286 12.391631064089575 0
114 1 10 86.94317114555788 12.195014052163028 0
115 1 11 93.76245903679937 12.175669973634548 0
116 1 12 100.78787655321658 12.120063488814615 0
117 1 13 107.67593171233511 12.278701059909478 0
118 1 13 114.50430894968221 12.238090107219163 0
119 1 13 121.59975534640243 12.342315224865253 0
120 1 13 128.19932782424013 12.017748844523831 0
121 1 13 135.4275391065088 12.284482470620146 0
122 1 12 142.41845905405282 12.362947039983153 0
123 1 11 149.01676437183548 12.156732864157616 0
124 1 10 155.98052399466533 12.11576845480945 0
125 1 16 163.09427750472517 12.183833829064378 0
126 1 16 0.34309299166670615 14.055462094283188 0
127 1 10 7.239827855330102 14.231041250943399 0
128 1 11 14.117750480132335 14.178020362186453 0
129 1 12 21.08835442503159 14.005356301088584 0
130 1 13 27.83215276411624 14.337223169310649 0
131 1 14 34.80935758511644 14.281652937109403 0
132 1 18 41.94806793034055 14.089440740197816 0
133 1 18 48.58276156684119 14.330608217114927 0
134 1 18 55.58365718024266 14.307139592658299 0
135 1 14 62.61005379021598 14.196334148332632 0
136 1 13 69.42676814657484 14.363987953096528 0
137 1 12 76.5807569858046 14.296992410880044 0
138 1 11 83.20387378709673 14.383503981481834 0
139 1 10 90.27528102215337 14.39086248469494 0
140 1 16 97.15918003881504 14.012682045178629 0
141 1 13 104.30166698170004 14.001753441840139 0
142 1 13 111.10482991956582 14.052162918312078 0
143 1 13 117.86160268660409 14.188647560277166 0
144 1 13 125.08328436073391 14.110427187204163 0
145 1 13 131.94167762090575 14.12384356133822 0
146 1 13 138.74250499008448 14.306965403893347 0
147 1 16 145.84154200077586 14.115383131557302 0
148 1 10 152.67998661120114 14.20728388448531 0
149 1 11 159.69366480776458 14.163628773321792 0
150 1 12 166.40542794823966 14.157588218102767 0
151 1 12 0.09186498285216578 18.071839787072953 0
152 1 11 7.07490907510302 18.204474315126244 0
153 1 10 13.921851032191451 18.307082397598062 0
154 1 16 21.02178061180432 18.193056020868468 0
155 1 13 27.782842611502158 18.00937362686281 0
156 1 17 34.69446024938834 18.366256807369076 0
157 1 14 41.64750127165306 18.087785223670185 0
158 1 14 48.8321844650007 18.332458974635657 0
159 1 14 55.804464535516466 18.231274060275194 0
160 1 17 62.36390411762329 18.33993627037931 0
161 1 13 69.3714157752824 18.321645506739134 0
162 1 16 76.22092593802654 18.369578106074307 0
163 1 10 83.52688970148823 18.1129207203358 0
164 1 11 90.42211030439908 18.00163666690227 0
165 1 12 97.03826809214713 18.311449344382034 0
166 1 13 104.26185732160994 18.210671630148695 0
167 1 17 111.04581070400664 18.09707326348229 0
168 1 17 118.09380956965005 18.279935477643125 0
169 1 17 124.76018172468287 18.39765976257116 0
170 1 17 131.70994309285348 18.10270508207019 0
171 1 13 138.88454702243874 18.05353598732636 0
172 1 12 145.59767054421135 18.0399887763504 0
173 1 11 152.81539343265095 18.291749842719206 0
174 1 10 159.38378420268828 18.35413336947991 0
175 1 16 166.32042490110516 18.115270479896417 0
176 1 4 -3.447588265986396 20.357551242163975 0
177 1 16 3.6893361793830293 20.357588806324763 0
178 1 10 10.600550465047352 20.38350280620041 0
179 1 11 17.44519212291095 20.111677483364975 0
180 1 12 24.57256771009973 20.20100079586935 0
181 1 13 31.276621490331955 20.147735566767647 0
182 1 17 38.160147542166335 20.18731083397292 0
183 1 17 45.20770174792504 20.314218099724158 0
184 1 17 52.356700801126046 20.145344275456758 0
185 1 17 59.1760020895868 20.329840519349013 0
186 1 13 66.07430595300922 20.12499222385377 0
187 1 12 72.81084011064128 20.27084451901384 0
188 1 11 79.79070396738473 20.25016253999621 0
189 1 10 86.87660826802153 20.28719999314316 0
190 1 16 93.7652245555481 20.288977102065775 0
191 1 13 100.70781774918036 20.118254167508944 0
192 1 17 107.42621255710496 20.34694614984287 0
193 1 14 114.59190759102884 20.021229912575986 0
194 1 14 121.40264515007834 20.18890708079577 0
195 1 14 128.2006551814937 20.19143650991491 0
196 1 17 135.41853801114058 20.221905154045004 0
197 1 13 142.06245263357002 20.079483394818066 0
198 1 16 148.99204828322948 20.06278478878165 0
199 1 10 156.05733491657764 20.13599347174225 0
200 1 11 163.0201217754562 20.216725794389127 0
201 1 4 -3.243081532961012 24.14706253414866 0
202 1 12 3.525677463368619 24.36251158450253 0
203 1 11 10.7493267231736 24.223394953230763 0
204 1 10 17.62875962167229 24.373066272446792 0
205 1 16 24.265594104981922 24.217749952079732 0
206 1 13 31.296490930380113 24.155149350714638 0
207 1 13 38.268044814540204 24.04989237045319 0
208 1 13 45.30753277340713 24.3590466054448 0
209 1 13 52.20569466106659 24.248473211724885 0
210 1 13 59.031084353963294 24.033829659397295 0
211 1 13 65.82076984890422 24.157794465732728 0
212 1 16 72.9707969121221 24.284998852709194 0
213 1 10 80.01739144394813 24.268671612377677 0
214 1 11 86.86225364984588 24.29623325050033 0
215 1 12 93.91490619319431 24.232664430746475 0
216 1 13 100.84860865063806 24.012855454223743 0
217 1 14 107.73844583891352 24.140722943327212 0
218 1 18 114.6117178407431 24.09428986520874 0
219 1 18 121.31753548105009 24.184730063273673 0
220 1 18 128.35868560888912 24.30642087109086 0
221 1 14 135.22053051827595 24.186667888192428 0
222 1 13 142.2658659378714 24.306909174407163 0
223 1 12 149.02448668603623 24.066368023704854 0
224 1 11 156.21058585371244 24.381441473049694 0
225 1 10 163.08023774190525 24.18257200520109 0
226 1 13 0.38378736151696347 26.368679366797224 0
227 1 16 7.292790748351304 26.290808825337383 0
228 1 10 14.01183982096817 26.051617161466613 0
229 1 11 21.14536528246192 26.24355778336623 0
230 1 12 27.99433568852266 26.317647977762963 0
231 1 13 34.94428751174563 26.194132921694578 0
232 1 13 41.7835342090539 26.213488720183378 0
233 1 13 48.75219701572554 26.372959846383132 0
234 1 13 55.691223080847635 26.363461606481078 0
235 1 13 62.70074584200031 26.285719169412904 0
236 1 12 69.51200243202788 26.149393989223604 0
237 1 11 76.60285719982674 26.21634446333694 0
238 1 10 83.24028951918596 26.190711887440933 0
239 1 16 90.24983810310407 26.241340517261268 0
240 1 13 97.10739050627048 26.106354085209592 0
241 1 17 104.18560619254097 26.314626259339224 0
242 1 18 111.0272673026589 26.369594670143137 0
243 1 21 118.0118617560024 26.295827134844096 0
244 1 21 124.7305205820098 26.194003465937485 0
245 1 18 131.78717326899178 26.243585679114318 0
246 1 17 138.92432081618946 26.16272641729264 0
247 1 13 145.54037203234958 26.31185302940294 0
248 1 16 152.47211562379107 26.39724256915598 0
249 1 10 159.42845566810587 26.165143174765696 0
250 1 11 166.45797207300959 26.000364644924236 0
251 1 13 0.246670979670748 30.304282282327648 0
252 1 12 7.246207009230375 30.00791805180823 0
253 1 11 14.125822777932793 30.362923344775254 0
254 1 10 21.178669863586506 30.27578133150419 0
255 1 16 27.727951230813538 30.323901388898577 0
256 1 12 34.68150634172711 30.088916361126344 0
257 1 12 41.90089574702757 30.29067983389008 0
258 1 12 48.58812356005679 30.30741204090581 0
259 1 12 55.682820336731005 30.295978772113543 0
260 1 12 62.57900851004014 30.08918416318277 0
261 1 16 69.34178736896045 30.314244318002167 0
262 1 10 76.57732480150993 30.162761506995086 0
263 1 11 83.50296441668567 30.321744065507364 0
264 1 12 90.1377868735583 30.393559769301937 0
265 1 13 96.9954109436123 30.33354525200656 0
266 1 14 104.13331563817871 30.37108675437552 0
267 1 4 110.95685728322434 30.21605598339715 0
268 1 19 118.09950347374563 30.29588993264251 0
269 1 19 124.8446723774493 30.352063115775913 0
270 1 4 131.78921660567676 30.237465976745344 0
271 1 14 138.57264058607163 30.345494845268174 0
272 1 13 145.6222643931358 30.09264011093987 0
273 1 12 152.55111900477604 30.260522365351687 0
274 1 11 159.38655485682747 30.131081658578392 0
275 1 10 166.5639021913021 30.19862286755225 0
276 1 5 -3.2757400884899868 32.24002087000761 0
277 1 13 3.5863219558094013 32.229043738704945 0
278 1 16 10.485367882386948 32.11980817159995 0
279 1 10 17.55620829550947 32.27824964491607 0
280 1 11 24.279827882696033 32.18256158728386 0
281 1 16 31.258752239915943 32.06926822013234 0
282 1 16 38.263884653730834 32.36873679259197 0
283 1 16 45.33437218083961 32.02274443666058 0
284 1 16 52.35080612020973 32.31376842586624 0
285 1 16 59.06226962118403 32.08715520027805 0
286 1 16 66.21551744012872 32.18160412572849 0
287 1 11 72.80585382437992 32.25683157181004 0
288 1 10 79.91351541499913 32.17137742188615 0
289 1 16 86.92031444592507 32.340158678677966 0
290 1 13 93.63924027608749 32.24376852796278 0
291 1 17 100.67747763522537 32.02574768744216 0
292 1 18 107.52912590637004 32.05064582017257 0
293 1 19 114.44309100870349 32.11278251244026 0
294 1 15 121.59084356577208 32.03152594751199 0
295 1 19 128.5257094327225 32.3012801408931 0
296 1 18 135.13177304325808 32.220105736281624 0
297 1 17 142.35525735944987 32.395259643628634 0
298 1 13 149.324276176983 32.142284709942416 0
299 1 16 156.04541487919806 32.10068657455765 0
300 1 10 163.1000418259142 32.04250631524227 0
301 1 16 -3.1160710826818323 36.109217261856074 0
302 1 13 3.5801563973575075 36.22300565513397 0
303 1 12 10.618908508556196 36.255542646045335 0
304 1 11 17.508071744716343 36.27618625488696 0
305 1 10 24.632473419489376 36.08493091363387 0
306 1 11 31.24285394922101 36.0788426976161 0
307 1 11 38.43504948769104 36.077074913987595 0
308 1 11 45.42682019275391 36.05043624124047 0
309 1 11 52.07316280011555 36.145540904068966 0
310 1 11 59.010717235152526 36.330624179635066 0
311 1 11 65.84350841875053 36.188007596832115 0
312 1 10 73.01221840964095 36.196266505120775 0
313 1 11 80.06489796155007 36.17458401851235 0
314 1 12 86.67875869283492 36.39842453675088 0
315 1 13 93.81377606327558 36.235617690255964 0
316 1 14 100.72728932021994 36.36833449231813 0
317 1 4 107.43311824813925 36.12234501295486 0
318 1 15 114.51516093213327 36.11033823117053 0
319 1 11 121.35356913464793 36.19943692574503 0
320 1 15 128.2635106740506 36.2050982699764 0
321 1 4 135.1741370429757 36.27498527640126 0
322 1 14 142.21725262068026 36.08444847824843 0
323 1 13 149.09804850919502 36.316462200222915 0
324 1 12 156.20447179918415 36.31501554985466 0
325 1 11 163.03908973542826 36.07380693195902 0
326 1 17 0.10375808248629564 38.062835710301016 0
327 1 13 7.30397017645371 38.38223622367689 0
328 1 16 13.955698229650293 38.38457369144232 0
329 1 10 20.912107350527968 38.14734503650071 0
330 1 15 27.840093237546824 38.339520432801926 0
331 1 15 34.880452564801004 38.36591732956889 0
332 1 15 41.802754926395046 38.105328873670125 0
333 1 15 48.77632739737186 38.07233682154307 0
334 1 15 55.72383394880064 38.28847275889753 0
335 1 15 62.399629808986745 38.098154531050106 0
336 1 15 69.4810627371709 38.18555537182417 0
337 1 10 76.39567358161203 38.25540646393905 0
338 1 16 83.47587809684728 38.09393000640891 0
339 1 13 90.14473510379571 38.37499826789515 0
340 1 17 97.35520823923476 38.34726944362494 0
341 1 18 104.11414896359979 38.08298574174628 0
342 1 19 111.14357351655629 38.34268845795518 0
343 1 11 117.91878851124898 38.38712400082051 0
344 1 11 124.76151978684464 38.20069962138974 0
345 1 19 131.8984723680621 38.0494585068343 0
346 1 18 138.84302254882812 38.16515217377923 0
347 1 17 145.61545061741344 38.279502960969566 0
348 1 13 152.73789422557795 38.076647955841885 0
349 1 16 159.57715671359097 38.08285107570476 0
350 1 10 166.6180629726816 38.16991749235182 0
351 1 17 0.02168333120647277 42.296974426415844 0
352 1 13 7.06108260704954 42.29327018298655 0
353 1 16 13.880758897105856 42.28603974562702 0
354 1 10 21.019524166293703 42.069796160592546 0
355 1 15 27.79276327539069 42.27366743263023 0
356 1 15 34.988225175315364 42.138729189496594 0
357 1 15 41.84780827669367 42.2595274859393 0
358 1 15 48.69725945206597 42.12029771403873 0
359 1 15 55.649882430038495 42.04262129281973 0
360 1 15 62.6867531828013 42.14247817354363 0
361 1 15 69.30118696909878 42.27323114293925 0
362 1 10 76.55852530782654 42.15303465903183 0
363 1 16 83.43777449046037 42.15307187350403 0
364 1 13 90.30010034545526 42.13814105812534 0
365 1 17 97.30545161429534 42.29042535339544 0
366 1 18 103.96911184170784 42.21328222871163 0
367 1 19 110.97240534143482 42.35987422918262 0
368 1 11 118.14777769855422 42.154583769211996 0
369 1 11 125.0479659588226 42.08017571233246 0
370 1 19 131.65824452571084 42.384087903433965 0
371 1 18 138.81533975030484 42.117596713062 0
372 1 17 145.60555711332972 42.33058570085742 0
373 1 13 152.79785152962083 42.03114888054824 0
374 1 16 159.43547430323724 42.161259131417594 0
375 1 10 166.54012088662088 42.18203300493997 0
376 1 16 -3.453062731507379 44.191029271150775 0
377 1 13 3.8123957070029983 44.381073071334384 0
378 1 12 10.510423989520817 44.188363244787865 0
379 1 11 17.67272570492239 44.009471477419176 0
380 1 10 24.424835376406705 44.152907881412716 0
381 1 11 31.341913046517384 44.07535466311284 0
382 1 11 38.36654363151301 44.131638528674095 0
383 1 11 45.425573509369386 44.15160731866428 0
384 1 11 52.21011662250705 44.14371988403632 0
385 1 11 59.126980785803916 44.28472683598061 0
386 1 11 65.85347371428857 44.11431901538259 0
387 1 10 72.97992662782694 44.03297229992748 0
388 1 11 79.89231098324113 44.313927749044105 0
389 1 12 86.69109921719124 44.34655356871391 0
390 1 13 93.58939183643943 44.13649446221074 0
391 1 14 100.51108644942687 44.11024046600829 0
392 1 4 107.44801967309837 44.15902910174788 0
393 1 15 114.5831628124514 44.24596637080412 0
394 1 11 121.56721791251596 44.03794055091376 0
395 1 15 128.549077306111 44.23479246598903 0
396 1 4 135.38060988720284 44.34536611239964 0
397 1 14 142.25631667793073 44.13638860107005 0
398 1 13 149.2165404002839 44.11523632594783 0
399 1 12 156.0144286117943 44.29233405259333 0
400 1 11 162.95461635693104 44.29832449306212 0
401 1 5 -3.2083845195857434 48.3602480449558 0
402 1 13 3.5584254530347033 48.24037454271519 0
403 1 16 10.53411434480281 48.382920179767396 0
404 1 10 17.3387870774387 48.230420506171285 0
405 1 11 24.252176694866137 48.29783193420378 0
406 1 16 31.412905487017166 48.1346080920915 0
407 1 16 38.129445533358655 48.35922112054759 0
408 1 16 45.27694179208763 48.152530291801156 0
409 1 16 52.22580924999429 48.37585533949961 0
410 1 16 59.19223718970115 48.09497152806773 0
411 1 16 66.1302876329281 48.366201282391216 0
412 1 11 72.75746774278983 48.203171898952434 0
413 1 10 79.74897206170427 48.1828344245687 0
414 1 16 86.7668569558238 48.25020094385011 0
415 1 13 93.62553638435048 48.32944911918951 0
416 1 17 100.80428448855182 48.10342761944812 0
417 1 18 107.42135197624945 48.23741540463805 0
418 1 19 114.35930151257016 48.28182299459915 0
419 1 15 121.37333156043576 48.03442949417419 0
420 1 19 128.20744814412137 48.183563967120676 0
421 1 18 135.31687123888995 48.024424952318256 0
422 1 17 142.1132850560866 48.273371514561006 0
423 1 13 149.13835605097873 48.06535287878 0
424 1 16 156.1166253830808 48.26333965590723 0
425 1 10 163.1489520552989 48.12659855964097 0
426 1 13 0.22926411358382515 50.19966243365015 0
427 1 12 6.9395075808164455 50.13359970484586 0
428 1 11 14.001449339656467 50.04177778302958 0
429 1 10 20.996293494184748 50.27823840491449 0
430 1 16 28.111545295736487 50.07218348556736 0
431 1 12 34.70742563463664 50.08523510790033 0
432 1 12 41.92292237118014 50.066228266911736 0
433 1 12 48.625159466624346 50.20625456374661 0
434 1 12 55.541614851822686 50.127376325935685 0
435 1 12 62.44620677961478 50.31530570968086 0
436 1 16 69.37395381279441 50.3122462808174 0
437 1 10 76.4085243131681 50.381356623156435 0
438 1 11 83.23299426305441 50.264389503140116 0
439 1 12 90.38158758491528 50.066584852442816 0
440 1 13 97.12732265695438 50.05456743904107 0
441 1 14 104.29743135159661 50.04048143862887 0
442 1 4 110.94607899340333 50.2695700405918 0
443 1 19 117.99291447236173 50.02440943114217 0
444 1 19 124.92154352822888 50.262428769238014 0
445 1 4 131.73382790555777 50.31433157064813 0
446 1 14 138.6466981719133 50.37873933797082 0
447 1 13 145.71531034783348 50.07815986632066 0
448 1 12 152.4304256484216 50.13669702970969 0
449 1 11 159.56521645365365 50.20453587836203 0
450 1 10 166.56468881836037 50.398690847819644 0
451 1 13 0.12049334224064584 54.197669961851034 0
452 1 16 7.21038383627771 54.302499953731854 0
453 1 10 13.971086746562671 54.05151955031995 0
454 1 11 20.97735988572022 54.13234193868238 0
455 1 12 27.846598809122156 54.163292116368304 0
456 1 13 35.03254704297464 54.052493736727016 0
457 1 13 41.63639049213517 54.31042568553247 0
458 1 13 48.799581610454176 54.05617274854178 0
459 1 13 55.69101293145649 54.15131947443299 0
460 1 13 62.42456040974189 54.3548866934051 0
461 1 12 69.29876163214117 54.14863717904243 0
462 1 11 76.60090387892362 54.24080240974478 0
463 1 10 83.15686080776277 54.088828825765674 0
464 1 16 90.11168782617743 54.30055166278481 0
465 1 13 97.25045842106557 54.28237622958322 0
466 1 17 104.11309446828345 54.143831695480465 0
467 1 18 110.92122441535126 54.03718105913654 0
468 1 21 118.12338306287567 54.20050651942111 0
469 1 21 125.03647027106759 54.31300525321607 0
470 1 18 131.68545913442813 54.378826797812636 0
471 1 17 138.94467234668937 54.307596583220395 0
472 1 13 145.6265469537756 54.37665412737768 0
473 1 16 152.66131845059215 54.098683910162485 0
474 1 10 159.35863595716216 54.03607203159433 0
475 1 11 166.4054201525138 54.05741599031905 0
476 1 4 -3.179968392911453 56.041186836701804 0
477 1 12 3.6978269360122527 56.13206666051116 0
478 1 11 10.489649076663605 56.164018982539474 0
479 1 10 17.63271415433783 56.395110292487594 0
480 1 16 24.559214945465346 56.029875853636305 0
481 1 13 31.292092583819024 56.10938534370672 0
482 1 13 38.44449709944595 56.24072194599705 0
483 1 13 45.08291988712385 56.29980804582504 0
484 1 13 52.148334696119676 56.29216981268941 0
485 1 13 59.19000994966617 56.09837425369659 0
486 1 13 65.92843215509265 56.392647645895856 0
487 1 16 72.88209876552592 56.29739004278868 0
488 1 10 79.9741146113727 56.013448294106865 0
489 1 11 86.75667969760518 56.303089191474406 0
490 1 12 93.66776118821645 56.037443112262395 0
491 1 13 100.46875088629353 56.34723626266668 0
492 1 14 107.67725901101117 56.07573101860026 0
493 1 18 114.56738820899164 56.35538610332824 0
494 1 18 121.54196599252266 56.25204419468514 0
495 1 18 128.34365450505507 56.06019812839685 0
496 1 14 135.47554679119943 56.27051262487347 0
497 1 13 142.18358126251772 56.17689799611553 0
498 1 12 149.1203067519804 56.12728038650194 0
499 1 11 156.03764512097865 56.254548837726354 0
500 1 10 163.03556800132327 56.046706831230324 0
501 1 4 -3.346638594629602 60.368567708186205 0
502 1 16 3.5194893584243516 60.011852168669954 0
503 1 10 10.727783351770482 60.025634838991536 0
504 1 11 17.448827063105924 60.39065714342727 0
505 1 12 24.378134425253513 60.139369397623845 0
506 1 13 31.526238510616587 60.05231727160361 0
507 1 17 38.2938020975192 60.0476804015297 0
508 1 17 45.385794154912666 60.1692005930294 0
509 1 17 52.27220496068993 60.20406558054522 0
510 1 17 59.17907751975302 60.22246626922272 0
511 1 13 66.1969664183114 60.330346791119624 0
512 1 12 73.01549937697268 60.26201244115931 0
513 1 11 79.96885028067052 60.037434383553965 0
514 1 10 86.66506995860911 60.082336270757835 0
515 1 16 93.59278845306514 60.07918487570879 0
516 1 13 100.64052561321786 60.113949687767736 0
517 1 17 107.61445946726145 60.315023386995726 0
518 1 14 114.39262006493702 60.15221431874708 0
519 1 14 121.38991670034012 60.281128521002124 0
520 1 14 128.54083971553422 60.28072459419759 0
521 1 17 135.17522809738708 60.25652708328343 0
522 1 13 142.10446736976888 60.165514390741414 0
523 1 16 149.2348864752742 60.12324649659373 0
524 1 10 156.1171388222447 60.29600340187649 0
525 1 11 162.97806873230584 60.22917441096218 0
526 1 12 0.09775657957745856 62.01029235320508 0
527 1 11 7.017880374274426 62.093974254803626 0
528 1 10 13.910181315047765 62.17712750704147 0
529 1 16 21.153461775108006 62.141308158335356 0
530 1 13 28.0027292975417 62.267548750995104 0
531 1 17 34.76909128632047 62.26878846652879 0
532 1 14 41.906030923528654 62.172019171122514 0
533 1 14 48.66603409367697 62.17913812474753 0
534 1 14 55.564745000190456 62.2352742880177 0
535 1 17 62.668764166672965 62.1350923439884 0
536 1 13 69.32964548311857 62.1128647050225 0
537 1 16 76.36680817545296 62.15292119125822 0
538 1 10 83.17966364023933 62.08504660352555 0
539 1 11 90.23545813653148 62.26821400169558 0
540 1 12 97.06856951195172 62.048068757688185 0
541 1 13 104.15605932969315 62.1626662743815 0
542 1 17 111.1910239565763 62.12565074473834 0
543 1 17 118.07590378311946 62.21428348112389 0
544 1 17 124.76376801250831 62.32031806706556 0
545 1 17 131.9661713122829 62.23730845275607 0
546 1 13 138.8967192826655 62.31895962061374 0