
14309 atoms
14896 bonds
16659 angles
32 atom types
8 bond types
23 angle types

-5.680607966083864 171.52447279080386 xlo xhi
-2.0 148.0 ylo yhi
-4 4 zlo zhi


Masses

1 0.0002656356996119607
2 0.0005843985391463136
3 0.0004250171193791372
4 0.00044626797534809404
5 0.0005418968272083999
6 0.0006056493951152704
7 0.0004993951152704862
8 0.00045689340333257246
9 0.0005312713992239214
10 0.0008500342387582743
11 0.0007437799589134899
12 0.0006375256790687058
13 0.0007225291029445331
14 0.000892535950696188
15 0.0008287833827893175
16 0.0006800273910066195
17 0.00074377995891349
18 0.0008287833827893174
19 0.0008925359506961881
20 0.0004675188313170509
21 0.0005737731111618351
22 0.00047814425930152926
23 0.0004887696872860077
24 0.0002550102716274823
25 0.0005312713992239214
26 0.0006375256790687058
27 0.0004250171193791372
28 0.0004675188313170509
29 0.0005100205432549646
30 0.0005737731111618351
31 0.0004887696872860077
32 0.00044626797534809404

Pair Coeffs

1 0.40509979849834776 0.44544935907016964 0.5
2 0.40509979849834776 0.44544935907016964 0.5
3 0.40509979849834776 0.44544935907016964 0.5
4 0.40509979849834776 0.44544935907016964 0.5
5 0.40509979849834776 0.44544935907016964 0.5
6 0.40509979849834776 0.44544935907016964 0.5
7 0.40509979849834776 0.44544935907016964 0.5
8 0.40509979849834776 0.44544935907016964 0.5
9 0.40509979849834776 0.44544935907016964 0.5
10 0.40509979849834776 0.44544935907016964 0.5
11 0.40509979849834776 0.44544935907016964 0.5
12 0.40509979849834776 0.44544935907016964 0.5
13 0.40509979849834776 0.44544935907016964 0.5
14 0.40509979849834776 0.44544935907016964 0.5
15 0.40509979849834776 0.44544935907016964 0.5
16 0.40509979849834776 0.44544935907016964 0.5
17 0.40509979849834776 0.44544935907016964 0.5
18 0.40509979849834776 0.44544935907016964 0.5
19 0.40509979849834776 0.44544935907016964 0.5
20 0.40509979849834776 0.44544935907016964 0.5
21 0.40509979849834776 0.44544935907016964 0.5
22 0.40509979849834776 0.44544935907016964 0.5
23 0.40509979849834776 0.44544935907016964 0.5
24 0.40509979849834776 0.44544935907016964 0.5
25 0.40509979849834776 0.44544935907016964 0.5
26 0.40509979849834776 0.44544935907016964 0.5
27 0.40509979849834776 0.44544935907016964 0.5
28 0.40509979849834776 0.44544935907016964 0.5
29 0.40509979849834776 0.44544935907016964 0.5
30 0.40509979849834776 0.44544935907016964 0.5
31 0.40509979849834776 0.44544935907016964 0.5
32 0.40509979849834776 0.44544935907016964 0.5

Bond Coeffs

1 106.25427984478428 0.5
2 127.50513581374115 0.5
3 85.00342387582744 0.5
4 93.50376626341017 0.5
5 102.00410865099292 0.5
6 114.75462223236703 0.5
7 97.75393745720154 0.5
8 89.25359506961881 0.5

Angle Coeffs

1 9.996732023078541 180
2 17.274352935879723 180
3 5.118326795816214 180
4 6.812492965231381 180
5 8.844468703170419 180
6 12.59300329025632 180
7 7.784335265586986 180
8 5.925103057006747 180
9 12.664481624545253 120
10 5.118326795816217 120
11 5.845124809293336 120
12 10.391003520727216 120
13 14.566805425397709 120
14 8.280608726980452 120
15 6.337887121503626 120
16 9.996732023078541 120
17 6.770273539439439 120
18 7.696624938816495 120
19 6.812492965231381 120
20 12.59300329025632 120
21 7.266061968702189 120
22 7.784335265586986 120
23 5.925103057006747 120

Atoms

1 1 1 -3.1414420264773693 0.24066385344645297 0
2 1 2 3.6180705699165427 0.038867236796672526 0
3 1 3 10.657567775450133 0.11521964812954044 0
4 1 4 17.380857080184576 0.13919858127847515 0
5 1 5 24.528355325641947 0.03159399884317118 0
6 1 6 31.504877066467927 0.31073583350719464 0
7 1 7 38.30986452928499 0.18301244195914987 0
8 1 8 45.386359280110135 0.20424294692458514 0
9 1 8 52.081153093686694 0.062389536764441145 0
10 1 7 59.108050766644475 0.34668599419124013 0
11 1 6 66.18198333876313 0.27226334861126383 0
12 1 5 72.84915776167406 0.3908309397493124 0
13 1 4 79.80314668579132 0.0671281654166335 0
14 1 3 86.99511787784996 0.29089665180015223 0
15 1 2 93.65055545239184 0.13927685668828135 0
16 1 9 100.83947139686731 0.15333871056195272 0
17 1 9 107.40920733830653 0.02349001258001371 0
18 1 9 114.54803375340104 0.37281547510265567 0
19 1 9 121.62037784337522 0.26861355551596655 0
20 1 9 128.21042413929732 0.36940033854919613 0
21 1 9 135.2853724193084 0.11951388136946517 0
22 1 9 142.16850930281188 0.35270008005091125 0
23 1 2 149.139846012563 0.17010671341617872 0
24 1 3 155.9269818696929 0.33236405549279 0
25 1 4 163.1414023163512 0.053954190209751875 0
26 1 10 0.020796475828140572 2.172723216553267 0
27 1 11 6.971491706154929 2.1010056693188943 0
28 1 12 14.24056125428524 2.256638467774473 0
29 1 13 21.06797540635706 2.2966540880462474 0
30 1 14 27.876099511391455 2.103193521683161 0
31 1 15 35.040724906196296 2.025163052984368 0
32 1 13 41.91143272693042 2.342731775380229 0
33 1 16 48.693101244273784 2.078821985246246 0
34 1 13 55.78318718695249 2.0892357895178955 0
35 1 15 62.444112449844845 2.3330718883703336 0
36 1 14 69.62896079024377 2.152847661678845 0
37 1 13 76.52453882648018 2.111271682109472 0
38 1 12 83.30381626654152 2.2999391625938355 0
39 1 11 90.14427995534372 2.324861213537484 0
40 1 10 97.17147533890373 2.0976593542119515 0
41 1 17 104.32031908881964 2.2949271413166747 0
42 1 17 110.85886896245955 2.3637806197905147 0
43 1 17 118.10398974161703 2.011957924905163 0
44 1 17 124.94657180144937 2.388422023912158 0
45 1 17 131.7242533118234 2.0143900611435934 0
46 1 17 138.7898945817196 2.1292692635752983 0
47 1 10 145.6943814512434 2.1044999185739157 0
48 1 11 152.68584241362942 2.345744650097146 0
49 1 12 159.68440725476424 2.252406835948203 0
50 1 13 166.61348484651856 2.236559412316593 0
51 1 11 0.11718358299479653 6.1642895649177945 0
52 1 10 6.931135658037552 6.010193721994667 0
53 1 12 13.997948497692198 6.360331381300879 0
54 1 16 21.09156278658823 6.215076098125247 0
55 1 15 28.044876410534354 6.188500622669009 0
56 1 14 35.00228725726705 6.371727627981274 0
57 1 17 41.5850881568995 6.330644484440872 0
58 1 13 48.74710091108492 6.34202284294163 0
59 1 17 55.54965788754522 6.300440693250664 0
60 1 14 62.46701658425528 6.30201073974352 0
61 1 15 69.6130484006144 6.127481694444895 0
62 1 16 76.22524759640291 6.347284681560244 0
63 1 12 83.20535260903843 6.074520774652538 0
64 1 10 90.4196037608945 6.298817764550756 0
65 1 11 97.27251946701747 6.222586604542101 0
66 1 12 104.24763126162843 6.187399355872142 0
67 1 12 111.12705006560091 6.346590074832155 0
68 1 12 118.07632218808654 6.278240339961268 0
69 1 12 124.77408147730651 6.130661312540182 0
70 1 12 131.6707778513797 6.166681754717328 0
71 1 12 138.6877713712028 6.361096356658429 0
72 1 11 145.6638174707385 6.288140805486071 0
73 1 10 152.5586732573381 6.261809905493743 0
74 1 12 159.46692971700088 6.373873211408687 0
75 1 16 166.38882585144975 6.229110530759801 0
76 1 3 -3.123074593833121 8.093065316684632 0
77 1 10 3.800321510685695 8.321788375401978 0
78 1 11 10.73741241934706 8.0113801431396 0
79 1 12 17.516063348993114 8.348916359036519 0
80 1 13 24.640677462260193 8.143449501230041 0
81 1 14 31.482224772693773 8.194222178109031 0
82 1 15 38.37636902330641 8.39266973112001 0
83 1 17 45.38170002033986 8.114411950373729 0
84 1 17 52.07674544404781 8.32067876389009 0
85 1 15 59.09838661925572 8.241404852724111 0
86 1 14 66.19275000448893 8.128636729209157 0
87 1 13 73.07725970889909 8.026169197782542 0
88 1 12 79.68603903414822 8.183088126772441 0
89 1 11 86.83122413908077 8.002791169824896 0
90 1 10 93.82806970695647 8.192616229531144 0
91 1 12 100.61595215835736 8.316510512877775 0
92 1 12 107.77655598893003 8.392986260202823 0
93 1 12 114.6195049173556 8.051175929937852 0
94 1 12 121.40633195730642 8.266293873126273 0
95 1 12 128.3051316718849 8.121522193551607 0
96 1 12 135.1241351429314 8.39747760975282 0
97 1 12 142.19216548208607 8.341480613684084 0
98 1 10 149.12651528723273 8.190619184735944 0
99 1 11 156.08129937123897 8.167037533215224 0
100 1 12 162.9870466663013 8.197733277651997 0
101 1 3 -3.3812977165122198 12.155878233702506 0
102 1 11 3.806036410307665 12.328510247645609 0
103 1 10 10.457758599013399 12.268117502567716 0
104 1 12 17.678820956301955 12.164144599134652 0
105 1 16 24.490322623574233 12.196377530107021 0
106 1 15 31.38907863746096 12.076634501521223 0
107 1 14 38.39681248099845 12.049550898804934 0
108 1 18 45.24377577914061 12.156761265716234 0
109 1 18 52.31538013422829 12.019561324895394 0
110 1 14 58.894496947408804 12.138180475867774 0
111 1 15 65.94370259864671 12.095991359742664 0
112 1 16 72.89076145314874 12.284860864468335 0
113 1 12 79.90221195523927 12.299430202717081 0
114 1 10 86.75232555768974 12.19630242324759 0
115 1 11 93.88333913467176 12.214240168798185 0
116 1 12 100.57575451166922 12.115927272241013 0
117 1 16 107.66982012367068 12.345842408723085 0
118 1 16 114.31768792917397 12.029092213538261 0
119 1 16 121.53945894748382 12.380019294502729 0
120 1 16 128.38243874048817 12.179096203944558 0
121 1 16 135.10655503176253 12.33480331661484 0
122 1 12 142.0395659488646 12.27530223874048 0
123 1 11 149.27132602572414 12.018814238569199 0
124 1 10 155.9828280290126 12.002965620171443 0
125 1 12 162.90197066212016 12.105681368632741 0
126 1 12 0.29277254545556247 14.337128654128188 0
127 1 10 7.265439985203988 14.150690597698397 0
128 1 11 13.956716196679448 14.26899236375851 0
129 1 12 21.17159501054551 14.198854155005142 0
130 1 13 27.960956818525453 14.0337727405034 0
131 1 14 34.791576011785615 14.048228157985223 0
132 1 19 41.611421488643984 14.337077214388907 0
133 1 19 48.78251158757178 14.285506766279422 0
134 1 19 55.4872653698206 14.098444961825992 0
135 1 14 62.406602885964375 14.06829238607742 0
136 1 13 69.42087577967958 14.304619189545074 0
137 1 12 76.47170047555481 14.321043627984688 0
138 1 11 83.40034934303807 14.059013830276056 0
139 1 10 90.35256847216746 14.139977232561279 0
140 1 12 97.37761921179559 14.0975227770783 0
141 1 16 103.93451410092375 14.04764042253283 0
142 1 13 111.13173740533496 14.327905328184327 0
143 1 13 118.02220374171843 14.000876930611058 0
144 1 13 124.89379108704456 14.039661300920093 0
145 1 13 131.63979006017186 14.367696038278721 0
146 1 16 138.8519087495768 14.342118034338387 0
147 1 12 145.7335099109407 14.164729749675601 0
148 1 10 152.6467474244122 14.342772518689134 0
149 1 11 159.40554990915612 14.323326038370867 0
150 1 12 166.52071396413018 14.072890864617655 0
151 1 12 0.3806888516191878 18.30635172245036 0
152 1 11 7.0032691371034135 18.036662145195947 0
153 1 10 13.898841457532345 18.171894643050628 0
154 1 12 21.069993116097077 18.353854848809885 0
155 1 16 27.76253679619584 18.35941479122595 0
156 1 15 34.690237210638735 18.25366543753234 0
157 1 19 41.770870002256046 18.154083756747387 0
158 1 19 48.720073685642085 18.139681269964285 0
159 1 19 55.49146134318673 18.39112694848407 0
160 1 15 62.389881345954905 18.247153143743333 0
161 1 16 69.58219454157818 18.198065155472776 0
162 1 12 76.47116602368169 18.39533147067828 0
163 1 10 83.30380376438119 18.087827693926837 0
164 1 11 90.22718758012238 18.069454682282007 0
165 1 12 97.14727355182883 18.089003257964386 0
166 1 13 103.93880142594156 18.003017220195574 0
167 1 18 111.00050588495192 18.38134565904995 0
168 1 18 117.98559386064714 18.034814553228095 0
169 1 18 125.08780816308692 18.347439997279317 0
170 1 18 131.92413032032852 18.196569096479358 0
171 1 13 138.6341868460945 18.218499108381742 0
172 1 12 145.61126782976172 18.216700963227037 0
173 1 11 152.4559053502658 18.17270259176235 0
174 1 10 159.73438066592837 18.244793965406373 0
175 1 12 166.27904077164945 18.017276015312007 0
176 1 4 -3.3773322527574816 20.128832144428188 0
177 1 12 3.5552905794853706 20.044166439307322 0
178 1 10 10.725137830054134 20.282860095978993 0
179 1 11 17.476938268293416 20.260896664073137 0
180 1 12 24.365992733214608 20.37670492533641 0
181 1 13 31.409803395559607 20.154703655581713 0
182 1 18 38.149076163083386 20.006236100417816 0
183 1 18 45.25066146063901 20.39586708928113 0
184 1 18 52.11669185107458 20.195326277656704 0
185 1 18 58.97278152361547 20.221961752320627 0
186 1 13 65.9533714081091 20.10303772391937 0
187 1 12 72.80162570193531 20.2336013123619 0
188 1 11 79.97223653033491 20.283559349070725 0
189 1 10 86.666077054606 20.276445619321095 0
190 1 12 93.54487293175454 20.09143254883083 0
191 1 16 100.85550456390357 20.011487668184845 0
192 1 15 107.44015010993371 20.278049688822605 0
193 1 19 114.36066787140987 20.302833349474998 0
194 1 19 121.3427532934598 20.04936797584675 0
195 1 19 128.52761345713648 20.35330823353698 0
196 1 15 135.28092860535529 20.345293389515536 0
197 1 16 142.08450592942074 20.14120827676716 0
198 1 12 148.99402118305844 20.341886121595635 0
199 1 10 156.04199046346235 20.28754979884063 0
200 1 11 163.2017194693182 20.28741821239954 0
201 1 20 -3.3346722839879424 24.207349994060312 0
202 1 12 3.7794175818935907 24.250039261819516 0
203 1 11 10.62239510369499 24.02636469507952 0
204 1 10 17.468183746613136 24.247175028946202 0
205 1 12 24.42753110982208 24.098421228711526 0
206 1 16 31.211589983513793 24.00390498891214 0
207 1 13 38.18598419251517 24.319698599368124 0
208 1 13 45.08694207187543 24.32588220349824 0
209 1 13 52.16037179018577 24.241512625435043 0
210 1 13 59.014242704478576 24.185467606001524 0
211 1 16 65.99993314329322 24.12616117054439 0
212 1 12 73.02179530198521 24.336485862903864 0
213 1 10 79.73396278236517 24.374441774170347 0
214 1 11 86.82702430572203 24.092645947444908 0
215 1 12 93.87456755101839 24.1193151539778 0
216 1 13 100.72118039829235 24.173157624200364 0
217 1 14 107.5735284009408 24.212592758821316 0
218 1 19 114.52903459864336 24.311971259904464 0
219 1 19 121.33869253145915 24.001378214259354 0
220 1 19 128.17452665598572 24.112980017894383 0
221 1 14 135.2152709333608 24.146821345854704 0
222 1 13 142.39185932263547 24.163200804192346 0
223 1 12 149.08731167734308 24.07433299685517 0
224 1 11 156.22968756062693 24.181461893235138 0
225 1 10 163.1277707366792 24.291911230169564 0
226 1 16 0.04737416551826965 26.070639427892996 0
227 1 12 7.276928626676236 26.200432651937895 0
228 1 10 14.152645745577228 26.17421761285006 0
229 1 11 21.127723712873262 26.242373225287796 0
230 1 12 27.923451083198103 26.17431029798303 0
231 1 16 34.90205250980885 26.144549282662442 0
232 1 16 41.83041707062122 26.091134796719913 0
233 1 16 48.74891278322663 26.00199852600545 0
234 1 16 55.50088789135568 26.02445630654449 0
235 1 16 62.50372337059572 26.117456443799288 0
236 1 12 69.46074317953948 26.176717542052646 0
237 1 11 76.36601677531114 26.04816779581547 0
238 1 10 83.5011069596447 26.086191328014433 0
239 1 12 90.45360675569974 26.290934213228525 0
240 1 16 97.07212135837105 26.124272119798416 0
241 1 15 104.02286726262221 26.287839970692843 0
242 1 14 111.16169511902592 26.156627500489606 0
243 1 18 117.94317578497893 26.041926185728208 0
244 1 18 124.80074824855753 26.358612091286144 0
245 1 14 131.75698519563613 26.3868576256563 0
246 1 15 138.8577588951646 26.391060647114895 0
247 1 16 145.80262736192938 26.021854062135596 0
248 1 12 152.7437546444141 26.387659140289504 0
249 1 10 159.4014816094726 26.225449850797744 0
250 1 11 166.60761335535648 26.216909788284568 0
251 1 13 0.28510631338045406 30.113080340005126 0
252 1 12 7.289713127255757 30.218237924548852 0
253 1 11 14.185478314086875 30.223523166972424 0
254 1 10 21.18120249892388 30.20390134596851 0
255 1 12 27.92136126933142 30.24151187704776 0
256 1 12 34.96448539044041 30.139267616318225 0
257 1 12 41.96277166251908 30.022432357902844 0
258 1 12 48.677104222302034 30.24734455943856 0
259 1 12 55.75292633019297 30.144436177829498 0
260 1 12 62.408984458059685 30.002881173832122 0
261 1 12 69.65005238699254 30.195212112269328 0
262 1 10 76.43453699364977 30.13699162327172 0
263 1 11 83.21697317106484 30.343913709520592 0
264 1 12 90.25182362967954 30.152286594092796 0
265 1 13 97.11028971272479 30.206222818308888 0
266 1 14 104.24335324339089 30.2915731165168 0
267 1 15 111.1803968306159 30.389548031778627 0
268 1 17 118.05942149453448 30.332555461074016 0
269 1 17 124.88981247439406 30.132554976801202 0
270 1 15 131.9088102980296 30.076212768760442 0
271 1 14 138.71332455065797 30.25604041407208 0
272 1 13 145.56361477253876 30.180670701864603 0
273 1 12 152.74251358939318 30.2892319959415 0
274 1 11 159.35398422851506 30.386185632774826 0
275 1 10 166.49510755413328 30.20277448809681 0
276 1 5 -3.4419223927144373 32.039463988697165 0
277 1 16 3.639477061025364 32.35183690238071 0
278 1 12 10.468992459978926 32.00035791401722 0
279 1 10 17.37619851309417 32.35745140018227 0
280 1 11 24.42587017247561 32.22934688928112 0
281 1 12 31.3614431406342 32.04948045145654 0
282 1 12 38.12620102427379 32.240626318172154 0
283 1 12 45.118717883946324 32.04604709955229 0
284 1 12 52.013082625135404 32.16767973700817 0
285 1 12 58.91279422544622 32.123775305590605 0
286 1 12 66.09273556266334 32.21657021378029 0
287 1 11 73.12606452853944 32.33305880492624 0
288 1 10 80.06316054915675 32.24009526906981 0
289 1 12 86.96544942643621 32.21056501293186 0
290 1 16 93.90560776787487 32.06439269770355 0
291 1 15 100.48805940827256 32.33506073621392 0
292 1 14 107.76499260324817 32.37482841019669 0
293 1 17 114.69153326836555 32.19281623208429 0
294 1 13 121.38818454009751 32.095431616084376 0
295 1 17 128.49690774725272 32.136666002663226 0
296 1 14 135.42500407082204 32.08230823830765 0
297 1 15 142.13555745774568 32.37136233349805 0
298 1 16 149.20911447246436 32.262051755883576 0
299 1 12 155.91675453266066 32.39773206359354 0
300 1 10 163.1080956885629 32.04105037000024 0
301 1 21 -3.462963628752511 36.152660669836045 0
302 1 13 3.7361890479178674 36.12633003817447 0
303 1 12 10.785187105435812 36.074518043076054 0
304 1 11 17.67264344460266 36.13252277411509 0
305 1 10 24.487235947818757 36.08914588659274 0
306 1 17 31.26560649498141 36.311673863029085 0
307 1 17 38.17714068718393 36.04282678482951 0
308 1 17 45.341548091418176 36.03888056913012 0
309 1 17 52.338468057823036 36.192919469304925 0
310 1 17 59.10622678589459 36.32997515416766 0
311 1 17 65.86564611139306 36.15735805198127 0
312 1 10 72.99545747288431 36.12921481177863 0
313 1 11 79.83671497575983 36.11909669561708 0
314 1 12 86.86179565719766 36.27505699471859 0
315 1 13 93.78799770094378 36.08567182708497 0
316 1 14 100.4782461892979 36.10292974336341 0
317 1 15 107.45713749474771 36.275511817491356 0
318 1 13 114.70575587789133 36.23806825662583 0
319 1 16 121.53420559824565 36.398204212395854 0
320 1 13 128.47109830649305 36.18235374210364 0
321 1 15 135.24695439103047 36.03992034927118 0
322 1 14 142.07047592151736 36.3261204867142 0
323 1 13 149.01988439869936 36.19838102688669 0
324 1 12 156.22334385330672 36.03393108284605 0
325 1 11 162.831514372078 36.13119329334909 0
326 1 15 0.34036047115046014 38.16128005596155 0
327 1 16 7.037889268878173 38.11740113835304 0
328 1 12 14.128832151505728 38.060325355935035 0
329 1 10 20.89787609085216 38.324685470147344 0
330 1 10 27.98163635584315 38.05148968660674 0
331 1 10 34.68133313070704 38.00464357021145 0
332 1 10 41.65669546441933 38.08213530838373 0
333 1 10 48.5798869006597 38.3312349598431 0
334 1 10 55.81551219090106 38.39005261615068 0
335 1 10 62.65076920376137 38.021897963463786 0
336 1 10 69.32636411442688 38.31406824963179 0
337 1 10 76.40125069974728 38.197205321025244 0
338 1 12 83.25521581687157 38.2729892485134 0
339 1 16 90.08566426108031 38.388156989361896 0
340 1 15 97.2399906723675 38.33992957837215 0
341 1 14 104.02916464667484 38.38597874352347 0
342 1 17 111.0105199084039 38.329448892572714 0
343 1 16 118.09532042520365 38.06901145134699 0
344 1 16 124.83791529296131 38.14199120995559 0
345 1 17 132.02658579877738 38.32628660579216 0
346 1 14 138.6540098253096 38.242770068144516 0
347 1 15 145.87645668106921 38.24514353689183 0
348 1 16 152.54327297324053 38.100355934535955 0
349 1 12 159.68253798728782 38.11444774581156 0
350 1 10 166.52539852489474 38.395317523569865 0
351 1 15 0.19058525793987582 42.01255092016855 0
352 1 16 6.974725211020295 42.04983556399892 0
353 1 12 13.90953328143979 42.29377616722532 0
354 1 10 20.83979574947737 42.069769545268564 0
355 1 10 27.802311595281616 42.02479737287106 0
356 1 10 34.85445407761145 42.36841798954887 0
357 1 10 41.80086957578079 42.08382677802324 0
358 1 10 48.72526073859988 42.35652982136791 0
359 1 10 55.68919906377036 42.28868922506449 0
360 1 10 62.662116288086146 42.36672083887776 0
361 1 10 69.58055754057924 42.25166303869737 0
362 1 10 76.35172713761798 42.29850902841584 0
363 1 12 83.23779895976158 42.23741972940301 0
364 1 16 90.09330948525592 42.00889767801308 0
365 1 15 97.11575865977753 42.367871871260874 0
366 1 14 104.23695370180887 42.24008415570877 0
367 1 17 111.17768845321866 42.134896349787645 0
368 1 16 117.99804770984285 42.15501205528287 0
369 1 16 124.82797543181452 42.117728322815196 0
370 1 17 131.84474497482978 42.01417275867575 0
371 1 14 138.58933794773904 42.07816029347785 0
372 1 15 145.6936932847265 42.216391253074605 0
373 1 16 152.64276661148443 42.210232247512444 0
374 1 12 159.35466048903507 42.273475921173045 0
375 1 10 166.5494586287518 42.307064342477545 0
376 1 21 -3.2618839331985434 44.15109826302609 0
377 1 13 3.833415425482948 44.393051810486966 0
378 1 12 10.588232679217159 44.073393352041315 0
379 1 11 17.509752344373275 44.215731834510144 0
380 1 10 24.517064095708278 44.31427611797482 0
381 1 17 31.312226720099904 44.28376210392881 0
382 1 17 38.1411929759481 44.108540043701346 0
383 1 17 45.09284056671822 44.0877588716562 0
384 1 17 51.988350552513666 44.337922752784124 0
385 1 17 58.95319629872583 44.393650154111256 0
386 1 17 65.82539941592114 44.22766440252545 0
387 1 10 73.07340500140906 44.328267392459956 0
388 1 11 79.86337386433186 44.166832081702026 0
389 1 12 86.65491639835115 44.19987683735241 0
390 1 13 93.72845251910994 44.367516310466755 0
391 1 14 100.55917339545212 44.38741513512515 0
392 1 15 107.68550075404322 44.30443962131949 0
393 1 13 114.37315415000847 44.086399005657874 0
394 1 16 121.29633061903156 44.102606201491305 0
395 1 13 128.21529017405737 44.37703771582806 0
396 1 15 135.33296363450512 44.35938323259216 0
397 1 14 142.09297345136696 44.018878152637704 0
398 1 13 149.2176897571077 44.12338546237751 0
399 1 12 156.26712866690553 44.28793490950872 0
400 1 11 162.98538324406738 44.25366137653107 0
401 1 5 -3.1189824852639756 48.39829714688832 0
402 1 16 3.534885508852312 48.184005656490974 0
403 1 12 10.425406030697246 48.240449136112424 0
404 1 10 17.355666286201764 48.36751900118591 0
405 1 11 24.512867411027447 48.3857502970439 0
406 1 12 31.276171113090093 48.21258554715805 0
407 1 12 38.23671552675407 48.1880876440989 0
408 1 12 45.39719439162305 48.08118984280914 0
409 1 12 51.96583258420742 48.212670651869026 0
410 1 12 59.21354002014454 48.04031053514835 0
411 1 12 65.8308134520427 48.23138896292736 0
412 1 11 72.9939098498916 48.194860707501306 0
413 1 10 80.01967011798972 48.098671458532145 0
414 1 12 86.61309204786254 48.03374676564698 0
415 1 16 93.76552320057313 48.39845150670908 0
416 1 15 100.66786200320352 48.087733625909415 0
417 1 14 107.63761582016735 48.04322945738112 0
418 1 17 114.60341701572783 48.225009777375774 0
419 1 13 121.58510398584112 48.00458828012235 0
420 1 17 128.43408784616918 48.10394455084978 0
421 1 14 135.41190483755074 48.38212940145926 0
422 1 15 142.12980629833555 48.098396941793744 0
423 1 16 149.10370342073776 48.366391029410515 0
424 1 12 156.25025379050047 48.3300383180065 0
425 1 10 163.1534629043469 48.24073362415189 0
426 1 13 0.151918010859366 50.054693048026266 0
427 1 12 6.96563695462752 50.06979786999098 0
428 1 11 13.925967175212259 50.26817062846965 0
429 1 10 20.941450912053615 50.21791130949323 0
430 1 12 27.85980766324162 50.27233477502999 0
431 1 12 34.92489891478206 50.32609922865589 0
432 1 12 41.710487138173846 50.26618363234889 0
433 1 12 48.73817926045515 50.30017426927571 0
434 1 12 55.52652967433002 50.11628614507319 0
435 1 12 62.69964164202683 50.385944274048434 0
436 1 12 69.38033359501094 50.04104633730684 0
437 1 10 76.29444443386599 50.25143968109234 0
438 1 11 83.49447998063582 50.07874039647419 0
439 1 12 90.44383156241005 50.34832269715854 0
440 1 13 97.34032423438858 50.34043083480815 0
441 1 14 104.22345207743452 50.1038222498533 0
442 1 15 111.1485923111203 50.13133560799489 0
443 1 17 117.91793250011513 50.26458572621021 0
444 1 17 124.9308750389522 50.3465637978715 0
445 1 15 131.9631986142103 50.32950027312039 0
446 1 14 138.82137017990465 50.03750903290819 0
447 1 13 145.6838792707701 50.3593676956897 0
448 1 12 152.5156025270862 50.187389227434764 0
449 1 11 159.37994248933816 50.15756996948211 0
450 1 10 166.47212682178085 50.32865475523063 0
451 1 16 0.33821544430785533 54.17399902348913 0
452 1 12 7.291517749765518 54.05827801490375 0
453 1 10 13.955068019844076 54.19842250860774 0
454 1 11 20.878641357625124 54.03229209801647 0
455 1 12 27.973302113740868 54.115693792784235 0
456 1 16 34.92917331384804 54.15524987300214 0
457 1 16 41.93780849932396 54.39319045508473 0
458 1 16 48.49823579366335 54.36215512678918 0
459 1 16 55.51448474024384 54.018414726194884 0
460 1 16 62.73002697187923 54.090760735577604 0
461 1 12 69.61501772792845 54.0048509512686 0
462 1 11 76.50729326520141 54.34678192367063 0
463 1 10 83.33775714820185 54.35283251209521 0
464 1 12 90.43388831896031 54.03143932315376 0
465 1 16 97.16920402375486 54.02272954218398 0
466 1 15 104.23474654253712 54.08587814012675 0
467 1 14 110.92299181246148 54.16425863290316 0
468 1 18 118.09025538127817 54.20426195858116 0
469 1 18 124.78633906347378 54.367573899826205 0
470 1 14 131.640546817796 54.208828507712326 0
471 1 15 138.85991737879095 54.25919729371481 0
472 1 16 145.79587992015374 54.36013132359912 0
473 1 12 152.4301022449627 54.19824577016687 0
474 1 10 159.43127829947375 54.35542136475493 0
475 1 11 166.61970975202715 54.19429091484941 0
476 1 20 -3.0951653922804265 56.36239136386896 0
477 1 12 3.6743129953854696 56.043953887208694 0
478 1 11 10.669396308643112 56.38184240900202 0
479 1 10 17.591143676692155 56.22003463663461 0
480 1 12 24.381241203660192 56.08331194718641 0
481 1 16 31.41652823107472 56.036322737532686 0
482 1 13 38.385235868812686 56.039329995860754 0
483 1 13 45.4326769066174 56.01751399957855 0
484 1 13 52.19905001672695 56.33028723773181 0
485 1 13 58.945573478401606 56.206565128128545 0
486 1 16 65.88874638001522 56.040562265519355 0
487 1 12 72.7836501887673 56.29193342768649 0
488 1 10 79.9112413142971 56.146594118190244 0
489 1 11 86.80190104540084 56.33735264861159 0
490 1 12 93.84105488923248 56.07655437339854 0
491 1 13 100.70345985395475 56.25632400165762 0
492 1 14 107.74706749461382 56.12914672392221 0
493 1 19 114.70852078250117 56.31211440982168 0
494 1 19 121.25591454915497 56.30981404700709 0
495 1 19 128.46932678143207 56.37438284922932 0
496 1 14 135.39775681867653 56.38568590591679 0
497 1 13 142.1458408381268 56.08124115372656 0
498 1 12 149.0960136725467 56.1816080270771 0
499 1 11 156.0996520273654 56.14518027438463 0
500 1 10 163.1897012507477 56.15154123602582 0
501 1 4 -3.3247026640741453 60.04830574213014 0
502 1 12 3.75001593258678 60.08304151761372 0
503 1 10 10.699524016171235 60.147976716894 0
504 1 11 17.502451360878773 60.145954830183705 0
505 1 12 24.444844475851497 60.045382254143 0
506 1 13 31.50167547908386 60.04868681776009 0
507 1 18 38.370924440758436 60.111575432817055 0
508 1 18 45.363137028900915 60.04109426312058 0
509 1 18 52.236249273 60.25621270281516 0
510 1 18 59.03821030730731 60.29988072491007 0
511 1 13 65.83294403648469 60.20098369735468 0
512 1 12 72.89916418593903 60.305280011990334 0
513 1 11 79.96559093256404 60.22496339148279 0
514 1 10 86.84212560087532 60.01661296528844 0
515 1 12 93.87025885117455 60.14040483101869 0
516 1 16 100.63764855685815 60.124132565221984 0
517 1 15 107.67852333990729 60.25063647896323 0
518 1 19 114.45761734623801 60.10064989106219 0
519 1 19 121.293348531507 60.06045211162945 0
520 1 19 128.4439813376472 60.06620155025497 0
521 1 15 135.13339462010543 60.16373364997841 0
522 1 16 142.0523095853064 60.303452174979306 0
523 1 12 148.9586640771679 60.39854372739147 0
524 1 10 156.10698676851004 60.025392033577845 0
525 1 11 162.8259319655872 60.207294875182036 0
526 1 12 0.3575611221658266 62.19685409977372 0
527 1 11 7.235442471275384 62.25652119952181 0
528 1 10 14.070857745662954 62.35243927408992 0
529 1 12 20.788852266587018 62.00454959963161 0
530 1 16 28.084769602009004 62.02687221410565 0
531 1 15 35.008207426912925 62.115927836591524 0
532 1 19 41.76448486373922 62.347374295068214 0
533 1 19 48.523253749213204 62.30946165517969 0
534 1 19 55.56154575750028 62.011426880344075 0
535 1 15 62.40979422395691 62.30990355792125 0
536 1 16 69.58511238388839 62.17354400705277 0
537 1 12 76.43641478808192 62.27679848933001 0
538 1 10 83.28088770530631 62.34272770468941 0
539 1 11 90.26876359858807 62.24295543820023 0
540 1 12 97.31621310994488 62.223414884333145 0
541 1 13 104.15045040553176 62.341800387061014 0
542 1 18 111.00463717339477 62.109091952470045 0
543 1 18 118.07382718217751 62.002823723245136 0
544 1 18 124.99065038495021 62.02804799239877 0
545 1 18 131.9340974245116 62.06283254433469 0
546 1 13 138.8115643425472 62.220589521927856 0