
14309 atoms
14896 bonds
16659 angles
7 atom types
2 bond types
4 angle types

-5.680607966083864 171.52447279080386 xlo xhi
-2.0 148.0 ylo yhi
-4 4 zlo zhi


Masses

1 0.0002637048980303295
2 0.0004868398117483006
3 0.000527409796060659
4 0.0007505447097786301
5 0.0002231349137179711
6 0.000527409796060659
7 0.0004462698274359422

Pair Coeffs

1 0.40509979849834776 0.44544935907016964 0.5
2 0.40509979849834776 0.44544935907016964 0.5
3 0.40509979849834776 0.44544935907016964 0.5
4 0.40509979849834776 0.44544935907016964 0.5
5 0.40509979849834776 0.44544935907016964 0.5
6 0.40509979849834776 0.44544935907016964 0.5
7 0.40509979849834776 0.44544935907016964 0.5

Bond Coeffs

1 105.4819592121318 0.5
2 89.25396548718844 0.5

Angle Coeffs

1 9.780325688065679 180
2 5.925176827863186 180
3 7.379599484589238 120
4 9.780325688065679 120

Atoms

1 1 1 -3.231836350288236 0.24706326885126328 0
2 1 2 3.4903623634434755 0.08488805992109345 0
3 1 2 10.570537328973124 0.10901010847856402 0
4 1 3 17.42889587405988 0.11490438971186046 0
5 1 2 24.321902123369345 0.14751154594139101 0
6 1 2 31.433663899890284 0.23914064532746418 0
7 1 3 38.26989168858913 0.3929120698330873 0
8 1 2 45.289166960540776 0.1709252308332408 0
9 1 2 52.16638387909137 0.3190112084170383 0
10 1 3 59.10023498379857 0.06984705266687655 0
11 1 2 65.88168694189973 0.031091429952738947 0
12 1 2 72.9144633857572 0.33919207145651104 0
13 1 3 80.03390607424204 0.18968018168875897 0
14 1 2 86.97702160946842 0.31658723857814347 0
15 1 2 93.66443221959712 0.008540138314537149 0
16 1 3 100.77443094317401 0.00870892517834161 0
17 1 2 107.48957122498778 0.04716291550017626 0
18 1 2 114.70256757011997 0.12139896162648234 0
19 1 3 121.39025246422968 0.061865453273359176 0
20 1 2 128.4520512773055 0.3335261955079478 0
21 1 2 135.12525333755207 0.08208074974497026 0
22 1 3 142.16027241145852 0.1740417969627166 0
23 1 2 149.1577036742945 0.04546369079306403 0
24 1 2 156.06448191903556 0.21329104060962423 0
25 1 3 162.85183014638199 0.05650499600351333 0
26 1 4 0.24070628420329288 2.013094062948454 0
27 1 4 6.991357719210562 2.204195652467781 0
28 1 4 13.950181838736077 2.2315362717463367 0
29 1 4 20.810776051355628 2.3287184532147016 0
30 1 4 27.99534046792107 2.009462877220911 0
31 1 4 35.02844395939855 2.1992780028223744 0
32 1 4 41.63412540750829 2.194526250760032 0
33 1 4 48.887254499300255 2.2846481862949424 0
34 1 4 55.75278676120817 2.035728754658729 0
35 1 4 62.60816580934235 2.063744673672454 0
36 1 4 69.50760923363438 2.3499000862281125 0
37 1 4 76.5725409933121 2.2483775047487176 0
38 1 4 83.30442911862214 2.3627888261585275 0
39 1 4 90.38082005320594 2.089911660133117 0
40 1 4 97.05459380108069 2.2355206100598246 0
41 1 4 104.16547562439722 2.2041741171800155 0
42 1 4 110.91867988540778 2.174536475796091 0
43 1 4 117.87215112245573 2.3307455114112345 0
44 1 4 125.10182959777627 2.2827764900885774 0
45 1 4 131.96012604600097 2.295293854352275 0
46 1 4 138.65404179063444 2.2185729802593794 0
47 1 4 145.5627797490454 2.088916053803786 0
48 1 4 152.78089706159145 2.150537106119693 0
49 1 4 159.5792040336642 2.3560523098201362 0
50 1 4 166.45800640623943 2.075193668051913 0
51 1 4 0.36756160382358294 6.197149254935543 0
52 1 4 7.203048807359199 6.307990966217461 0
53 1 4 14.081427124597381 6.267768063077533 0
54 1 4 20.997733002042736 6.354536701854774 0
55 1 4 27.75557901722494 6.324227761744407 0
56 1 4 34.6857802789297 6.185360228365478 0
57 1 4 41.80945807263038 6.194483434200137 0
58 1 4 48.831378140094856 6.370752741725364 0
59 1 4 55.61179556475503 6.248661731546471 0
60 1 4 62.396862217846206 6.234038913877502 0
61 1 4 69.37733927786901 6.046031459180189 0
62 1 4 76.55421867445573 6.335660589754237 0
63 1 4 83.4814942817865 6.368214491231443 0
64 1 4 90.25913832713876 6.103950573962434 0
65 1 4 97.37913465887267 6.136314299609752 0
66 1 4 104.23436493674338 6.09217077104121 0
67 1 4 111.0703033856246 6.241221887996805 0
68 1 4 118.03499800370068 6.187196412685883 0
69 1 4 124.97825575849149 6.335730247712378 0
70 1 4 131.8421474990828 6.093459609792974 0
71 1 4 138.9102493524689 6.059176053232174 0
72 1 4 145.66549766512972 6.1349086289844585 0
73 1 4 152.6855572878992 6.29689176070063 0
74 1 4 159.71335737810324 6.08721254434447 0
75 1 4 166.31168456556395 6.243683498407999 0
76 1 2 -3.212647241849725 8.317562727690797 0
77 1 4 3.7818164576836244 8.207494105120901 0
78 1 4 10.597145340079502 8.094267036238708 0
79 1 4 17.626396934127854 8.334059934986636 0
80 1 4 24.597291956659706 8.146262299030528 0
81 1 4 31.498653425659878 8.361512089520959 0
82 1 4 38.119116411675584 8.064227988051602 0
83 1 4 45.19921226501272 8.332824982261426 0
84 1 4 52.076935367498066 8.1686184322844 0
85 1 4 59.255346602466936 8.015957270590764 0
86 1 4 66.15441936046595 8.107451290908333 0
87 1 4 72.9106723735269 8.234321395488399 0
88 1 4 79.86690132162983 8.394536455110321 0
89 1 4 86.95054902477736 8.039932827860197 0
90 1 4 93.92102465586926 8.344307860731446 0
91 1 4 100.79719785326431 8.272422206334808 0
92 1 4 107.55060775693795 8.16810146251943 0
93 1 4 114.40125616032176 8.232926122654266 0
94 1 4 121.30100120277974 8.066962470054742 0
95 1 4 128.22500103216726 8.232121485144955 0
96 1 4 135.41119096331448 8.08489849307169 0
97 1 4 142.31429608195825 8.198615386739267 0
98 1 4 149.34866448947113 8.38954062295565 0
99 1 4 156.00483283143868 8.118233825382386 0
100 1 4 163.19861726498698 8.237277503852797 0
101 1 2 -3.1088586042483435 12.32821468222727 0
102 1 4 3.8469151692804173 12.381807673105554 0
103 1 4 10.60557667433233 12.04856963614981 0
104 1 4 17.503833026379628 12.396530028118232 0
105 1 4 24.363841056641004 12.291861646303996 0
106 1 4 31.294409845223075 12.396665931973864 0
107 1 4 38.42034228752289 12.107248728634929 0
108 1 4 45.293920592110915 12.379155403111335 0
109 1 4 52.16473593117693 12.186033677755553 0
110 1 4 58.95235024132943 12.38036187091178 0
111 1 4 66.14824192481582 12.0854776787544 0
112 1 4 72.9974108754428 12.227192647544907 0
113 1 4 79.80547975737335 12.199331889005132 0
114 1 4 86.92399435296076 12.242472083066202 0
115 1 4 93.57850771750488 12.321670384137219 0
116 1 4 100.63629268689678 12.346133659076429 0
117 1 4 107.44046560437958 12.104368548080194 0
118 1 4 114.46639188261229 12.188694211487746 0
119 1 4 121.388500558336 12.357596077501286 0
120 1 4 128.4455452691665 12.391365680761783 0
121 1 4 135.14488155326248 12.269471052240474 0
122 1 4 142.22742084495601 12.002203675298217 0
123 1 4 149.1327454687523 12.392744686234334 0
124 1 4 156.04212393823823 12.053866959636785 0
125 1 4 162.88313172847157 12.13037501355631 0
126 1 4 0.07025645717157074 14.379524243549941 0
127 1 4 7.07550100846091 14.340384364087807 0
128 1 4 13.961446169713726 14.074048405042763 0
129 1 4 20.841913725584128 14.320825348139106 0
130 1 4 27.995180799369887 14.381831538163873 0
131 1 4 34.72644824682967 14.328546808056853 0
132 1 4 41.7832141804229 14.075226474134364 0
133 1 4 48.66244095673576 14.000325259676742 0
134 1 4 55.728599421224075 14.255378984287377 0
135 1 4 62.604679603894766 14.148700124127176 0
136 1 4 69.31936145141324 14.065444580408892 0
137 1 4 76.42881717905206 14.254053170942496 0
138 1 4 83.26077506864782 14.195816246952825 0
139 1 4 90.4360388941225 14.164192728591503 0
140 1 4 97.31065838443851 14.364512298700262 0
141 1 4 103.93441164631844 14.190787250701192 0
142 1 4 111.18376704635436 14.206570683777727 0
143 1 4 118.16334952750351 14.104454640523947 0
144 1 4 125.07297598159329 14.338520289475502 0
145 1 4 131.77172533589058 14.013179269340764 0
146 1 4 138.57577785873215 14.174909419341754 0
147 1 4 145.64523635489812 14.238469931089064 0
148 1 4 152.7991329806643 14.041722589614842 0
149 1 4 159.42309837449454 14.320626360480706 0
150 1 4 166.30042639929783 14.239604153861528 0
151 1 4 0.30661050176978843 18.390096821239457 0
152 1 4 7.154963772535733 18.21766105271 0
153 1 4 14.241799086838647 18.30788430598574 0
154 1 4 20.93792672277784 18.054603362465965 0
155 1 4 28.108115374026692 18.319071382010854 0
156 1 4 34.89055980031159 18.18428053832158 0
157 1 4 41.83852652098448 18.07524432641727 0
158 1 4 48.50466384231897 18.24258627842129 0
159 1 4 55.437175833748825 18.19864343853092 0
160 1 4 62.63148404184661 18.099436851726374 0
161 1 4 69.54381426145576 18.130688695653102 0
162 1 4 76.25413794622258 18.174914430758257 0
163 1 4 83.21703879504587 18.180298497287502 0
164 1 4 90.38052840263829 18.15107863059215 0
165 1 4 97.23223182221628 18.282523544775312 0
166 1 4 104.26068437869041 18.035948179627514 0
167 1 4 111.19107733204906 18.074646791842103 0
168 1 4 117.79801311495554 18.281963569786555 0
169 1 4 124.76502088663489 18.077732532537475 0
170 1 4 131.83106141190186 18.36711408652935 0
171 1 4 138.78435117242753 18.385680140564464 0
172 1 4 145.68304305763306 18.07438792040595 0
173 1 4 152.73421590288152 18.0557037194389 0
174 1 4 159.67121440448065 18.1116710711197 0
175 1 4 166.32736146344052 18.19970751226887 0
176 1 2 -3.320450513818318 20.177208537317824 0
177 1 4 3.6219353419774873 20.089499111447967 0
178 1 4 10.49320647604026 20.282886851254343 0
179 1 4 17.335066170625854 20.105867459522237 0
180 1 4 24.592839326748926 20.031368212586987 0
181 1 4 31.225992260530116 20.180442188517738 0
182 1 4 38.49468325704227 20.270254164347023 0
183 1 4 45.0791313467516 20.230935916065917 0
184 1 4 52.03209059009434 20.21930999782302 0
185 1 4 58.915430983553925 20.261316080297707 0
186 1 4 65.97891508679534 20.32627761384484 0
187 1 4 72.81851581053918 20.39432961866795 0
188 1 4 79.95882207173334 20.046512126375003 0
189 1 4 86.88791754560198 20.252046484410084 0
190 1 4 93.89057051347136 20.3082350852838 0
191 1 4 100.83801757090566 20.31477413204587 0
192 1 4 107.72730179883555 20.19301642094426 0
193 1 4 114.67684609051419 20.336699872515528 0
194 1 4 121.56032336509351 20.268293227399457 0
195 1 4 128.35105879381655 20.29558313550282 0
196 1 4 135.1020890666332 20.198763298481495 0
197 1 4 142.13194804455193 20.336908206718864 0
198 1 4 149.08908590418608 20.3052941933688 0
199 1 4 155.90229695749653 20.00228116692603 0
200 1 4 163.06867857344818 20.39325211389354 0
201 1 2 -3.284234237891437 24.252818814616358 0
202 1 4 3.6860940270682336 24.220231210895605 0
203 1 4 10.45878198518733 24.048989580123077 0
204 1 4 17.617126345593523 24.39954133118818 0
205 1 4 24.37398958533734 24.395117573450385 0
206 1 4 31.292330670783613 24.15297355700347 0
207 1 4 38.281094269558785 24.251214218213686 0
208 1 4 45.19337440868864 24.346867357565056 0
209 1 4 52.17264534664411 24.362026460215827 0
210 1 4 59.091053731195856 24.064080355668438 0
211 1 4 65.90704471330487 24.15010835640431 0
212 1 4 72.7656864999656 24.192916439027062 0
213 1 4 79.84670269858137 24.357950370383435 0
214 1 4 86.89448175051635 24.312924398195083 0
215 1 4 93.88348523304347 24.239063267940843 0
216 1 4 100.50623497345987 24.0248068782076 0
217 1 4 107.50675836998333 24.355526645968165 0
218 1 4 114.70861573637167 24.16283924261316 0
219 1 4 121.34967134936694 24.076835296870097 0
220 1 4 128.20875981682678 24.27177284840761 0
221 1 4 135.46907013586173 24.23804682580015 0
222 1 4 142.3217411661315 24.084913747144395 0
223 1 4 149.0187827287241 24.220327991088666 0
224 1 4 155.8974886446968 24.008440231956154 0
225 1 4 163.0735527378142 24.23453234177811 0
226 1 4 0.150668355169559 26.04154826887724 0
227 1 4 6.998193296556499 26.282866239415263 0
228 1 4 14.250238420521042 26.354899463734355 0
229 1 4 21.095383416931817 26.239306945113842 0
230 1 4 27.978942202026634 26.37281572377407 0
231 1 4 35.005446430927414 26.083922043791354 0
232 1 4 41.589190325908866 26.088714948999193 0
233 1 4 48.56970155903585 26.39777120377272 0
234 1 4 55.67485836244895 26.006237901135943 0
235 1 4 62.36068151625066 26.376782423242485 0
236 1 4 69.35427825481803 26.15751075316497 0
237 1 4 76.45059134257671 26.3969541661372 0
238 1 4 83.36664722124534 26.22840289996715 0
239 1 4 90.08186719754389 26.24217167679569 0
240 1 4 97.35834671948126 26.02938822631422 0
241 1 4 104.20741239099434 26.062573224238925 0
242 1 4 111.20650073167559 26.266656575311615 0
243 1 4 118.12185787435605 26.194513043293696 0
244 1 4 124.88467692457763 26.149858403439424 0
245 1 4 131.89082250480453 26.118011071093648 0
246 1 4 138.81629027156524 26.305499748972533 0
247 1 4 145.82537919840811 26.011733617249604 0
248 1 4 152.67134232913193 26.076298933015476 0
249 1 4 159.5897443061051 26.397202491216042 0
250 1 4 166.41187820709231 26.036105592469692 0
251 1 4 0.33928627711488923 30.255957150594636 0
252 1 4 7.116282027073179 30.029564707348992 0
253 1 4 13.958885025467207 30.136648182620277 0
254 1 4 20.95258802688116 30.287927516733617 0
255 1 4 27.787742084039508 30.356981406144932 0
256 1 4 34.77678836001419 30.29665434326654 0
257 1 4 41.690371636848695 30.10417607210157 0
258 1 4 48.60835456067717 30.30291855701305 0
259 1 4 55.61950268910722 30.26129644937428 0
260 1 4 62.65031742243618 30.344255422967212 0
261 1 4 69.40463298250023 30.34248025206706 0
262 1 4 76.38075673257102 30.293562250974333 0
263 1 4 83.43556700598894 30.159478341522323 0
264 1 4 90.39831397198697 30.281372873953558 0
265 1 4 97.20356603015969 30.371811441208678 0
266 1 4 104.24014065827362 30.08491149730646 0
267 1 4 111.11150641101989 30.078198473088353 0
268 1 4 118.09340459037732 30.226363432986457 0
269 1 4 124.71491245515915 30.261517719997727 0
270 1 4 132.00345105502464 30.34759823512651 0
271 1 4 138.75479057164836 30.110693962657674 0
272 1 4 145.52953510070532 30.232999545414923 0
273 1 4 152.67111452936712 30.380997412872798 0
274 1 4 159.53491507492961 30.21564014123289 0
275 1 4 166.54172164973184 30.242083319087786 0
276 1 2 -3.228906882150588 32.146127608580976 0
277 1 4 3.73376510688833 32.11231167645641 0
278 1 4 10.646634130656832 32.21938914598271 0
279 1 4 17.685013526831078 32.19405721823915 0
280 1 4 24.320584646595126 32.10038554645773 0
281 1 4 31.387003560985868 32.00443447797254 0
282 1 4 38.47133406518378 32.37698287130397 0
283 1 4 45.08488239118486 32.268294934044 0
284 1 4 52.281293562045 32.210325157229235 0
285 1 4 59.13118459340762 32.26159638371481 0
286 1 4 66.19546238186534 32.05874234976065 0
287 1 4 72.89475405712135 32.190911898124604 0
288 1 4 79.90751249271563 32.338037209980904 0
289 1 4 86.73835512412715 32.24689997645188 0
290 1 4 93.88239151626557 32.22437765916576 0
291 1 4 100.4941041992076 32.301616222937675 0
292 1 4 107.60993047094169 32.212820025891716 0
293 1 4 114.66618573339049 32.025652267164304 0
294 1 4 121.44189066321226 32.19740735237773 0
295 1 4 128.38866372355167 32.05925016872199 0
296 1 4 135.2693327891846 32.27423841508779 0
297 1 4 142.2569805670344 32.169837738667134 0
298 1 4 149.14693114180386 32.29089840566786 0
299 1 4 156.1305509062671 32.284643903717914 0
300 1 4 163.008399882142 32.2270619962666 0
301 1 2 -3.3016669724277947 36.13155679100205 0
302 1 4 3.749757607418899 36.15307905758982 0
303 1 4 10.681680636403835 36.12792731972516 0
304 1 4 17.38951845257979 36.08452048596551 0
305 1 4 24.445345840792392 36.19961067116234 0
306 1 4 31.229813181716892 36.3232829148655 0
307 1 4 38.453667896480134 36.36425692364893 0
308 1 4 45.1237366262089 36.37064367510563 0
309 1 4 52.18647327161202 36.31193302970084 0
310 1 4 59.23492841429722 36.28391254010191 0
311 1 4 66.0446847516501 36.26213607810268 0
312 1 4 72.85162728763954 36.19040422036362 0
313 1 4 80.02189516430127 36.187584698427884 0
314 1 4 86.6399447884523 36.129013514959354 0
315 1 4 93.65594826128323 36.14756407511834 0
316 1 4 100.75235650331686 36.01124076103245 0
317 1 4 107.44314469990242 36.11747636068945 0
318 1 4 114.56947804636374 36.29979499999873 0
319 1 4 121.5838195951263 36.34090309881838 0
320 1 4 128.44627477369826 36.324629080653274 0
321 1 4 135.41893705244127 36.24298174178777 0
322 1 4 142.1152284477057 36.15874980552104 0
323 1 4 149.11336879293998 36.334220906838574 0
324 1 4 155.91568176495758 36.13307796656218 0
325 1 4 162.9838537350105 36.19570764313163 0
326 1 4 0.27285148568733447 38.299312308449494 0
327 1 4 6.984545129419052 38.31942513607983 0
328 1 4 14.02007460618517 38.02213715009131 0
329 1 4 21.02222135369591 38.34191015848422 0
330 1 4 27.74768611468356 38.056087601491335 0
331 1 4 34.78990598423444 38.13089089724128 0
332 1 4 41.66212502217562 38.02840807280534 0
333 1 4 48.81508109081448 38.011421874872866 0
334 1 4 55.52156736095029 38.16393864763562 0
335 1 4 62.356055977289785 38.35289846212777 0
336 1 4 69.353593848425 38.24490521586393 0
337 1 4 76.25071383570017 38.10132794450291 0
338 1 4 83.44485756860617 38.090397056743306 0
339 1 4 90.19416171801693 38.037951724473935 0
340 1 4 97.14029134953181 38.17864661186281 0
341 1 4 104.30725948187848 38.025412587187404 0
342 1 4 110.86124888001504 38.328035252647524 0
343 1 4 118.14980247615881 38.02911017584854 0
344 1 4 124.76082307861977 38.10329138941321 0
345 1 4 131.67847879339993 38.25260838812335 0
346 1 4 138.9243874929967 38.32508574861264 0
347 1 4 145.50608935585618 38.2329615483832 0
348 1 4 152.49536627690415 38.34011616550113 0
349 1 4 159.61234852374008 38.050345188970354 0
350 1 4 166.54860828132126 38.21061059836996 0
351 1 4 0.22020010385111188 42.335605698927246 0
352 1 4 7.078614369763356 42.26079566856925 0
353 1 4 14.145209884043672 42.27243216798475 0
354 1 4 21.15062378824916 42.27426086248219 0
355 1 4 27.858573545425564 42.207969356831086 0
356 1 4 35.018563112691574 42.33789121681604 0
357 1 4 41.8544502344878 42.08198034659506 0
358 1 4 48.781474537944135 42.33989039775761 0
359 1 4 55.58120987941078 42.17995471435656 0
360 1 4 62.66682904174679 42.081354649503716 0
361 1 4 69.48555490813813 42.28036799763041 0
362 1 4 76.33942176878617 42.345765723765936 0
363 1 4 83.39456694168328 42.07546894897932 0
364 1 4 90.125183381387 42.20199721190855 0
365 1 4 97.27622451925183 42.319169677711606 0
366 1 4 104.22883884181896 42.33437233149073 0
367 1 4 111.14680779841576 42.00488861927745 0
368 1 4 117.97374813352693 42.229834796535656 0
369 1 4 124.72544339387822 42.0794964584922 0
370 1 4 131.69579674411898 42.37548858456227 0
371 1 4 138.75300853829464 42.233581031031285 0
372 1 4 145.63997694496834 42.04211808205944 0
373 1 4 152.5099435981331 42.345027889339406 0
374 1 4 159.67126930883808 42.35531922321131 0
375 1 4 166.47477909776558 42.29210732634723 0
376 1 2 -3.4292391671990625 44.133504401243385 0
377 1 4 3.484634670430636 44.24342096254399 0
378 1 4 10.466390517388913 44.07165009285672 0
379 1 4 17.610747572034274 44.293457821257235 0
380 1 4 24.59992768196364 44.2842595472731 0
381 1 4 31.47461568919911 44.371601525341426 0
382 1 4 38.44338303287964 44.12439614594819 0
383 1 4 45.421259604812434 44.03511881337905 0
384 1 4 52.23023502931105 44.31152960597014 0
385 1 4 59.040439879255345 44.19696946718287 0
386 1 4 66.06980673123006 44.031019665418995 0
387 1 4 72.91304986574987 44.35316870741458 0
388 1 4 79.92656297770291 44.02744994025823 0
389 1 4 86.75964906179793 44.04795134918185 0
390 1 4 93.58315472538155 44.17044524200495 0
391 1 4 100.63155638055959 44.16362992252967 0
392 1 4 107.47106958115596 44.168523830427056 0
393 1 4 114.44223632711432 44.15496793865221 0
394 1 4 121.54088903679282 44.157135805058054 0
395 1 4 128.49062297264888 44.00395258366447 0
396 1 4 135.27420315712362 44.19852532097589 0
397 1 4 142.18108654958908 44.0283956967331 0
398 1 4 149.02841013053387 44.291861322351835 0
399 1 4 156.1821223129099 44.141909626118576 0
400 1 4 162.9676354241817 44.055268321691806 0
401 1 2 -3.0785552731632393 48.183133074198004 0
402 1 4 3.636245107608733 48.37650121481941 0
403 1 4 10.704775786132087 48.304324198388166 0
404 1 4 17.462857538378795 48.06754780381302 0
405 1 4 24.264652173994246 48.18297459534681 0
406 1 4 31.525569841688633 48.03381373321107 0
407 1 4 38.11444027339677 48.39177069477909 0
408 1 4 45.18933272099108 48.19541732800963 0
409 1 4 52.13173451317666 48.263259322606324 0
410 1 4 59.20984683073729 48.269826347428044 0
411 1 4 66.09744691171761 48.30939454426545 0
412 1 4 72.82613045602938 48.117782910132426 0
413 1 4 79.80433426320644 48.04914952079076 0
414 1 4 86.62747070629138 48.16118134817597 0
415 1 4 93.57738749327717 48.259577993479134 0
416 1 4 100.80730337829473 48.0553335354078 0
417 1 4 107.71453459106033 48.261920459531815 0
418 1 4 114.60426155880636 48.28980097706061 0
419 1 4 121.35365178529949 48.341548415378256 0
420 1 4 128.48556527092555 48.12541789051599 0
421 1 4 135.20996325827406 48.22140496261367 0
422 1 4 142.09466372428508 48.31729876177833 0
423 1 4 149.04082946964726 48.351357899512536 0
424 1 4 155.97464769648244 48.10111348239732 0
425 1 4 162.87624825542966 48.07661045735647 0
426 1 4 0.2015458850957085 50.273395220893775 0
427 1 4 7.2892999150859525 50.00357804116123 0
428 1 4 14.035978640780534 50.053824808689455 0
429 1 4 21.140966563467064 50.066913111108036 0
430 1 4 27.91710822548307 50.015732693231364 0
431 1 4 34.86702496019162 50.13596462715234 0
432 1 4 41.81238036800243 50.15616647879987 0
433 1 4 48.77980362343897 50.09472787446596 0
434 1 4 55.818399625288514 50.19342574182005 0
435 1 4 62.66406625802996 50.31550825226703 0
436 1 4 69.45961998827694 50.29686113022333 0
437 1 4 76.4646041248756 50.35476550966115 0
438 1 4 83.49452318588126 50.2194236052827 0
439 1 4 90.34388882945058 50.0128401407054 0
440 1 4 97.0653232867911 50.08954402626261 0
441 1 4 104.0734649716445 50.07480660812755 0
442 1 4 110.96290443181545 50.39794273377915 0
443 1 4 118.0207055415225 50.1981526832935 0
444 1 4 124.93157406288626 50.327968020447955 0
445 1 4 132.03554804365632 50.323849665360726 0
446 1 4 138.83318968477366 50.380531496385096 0
447 1 4 145.77591225945295 50.10227651643771 0
448 1 4 152.7767387755576 50.285784943294 0
449 1 4 159.35451659122208 50.04703662677108 0
450 1 4 166.5798076887875 50.03314332879998 0
451 1 4 0.09850164963086781 54.25299710838365 0
452 1 4 7.03348096629106 54.338109636764656 0
453 1 4 14.07566643297915 54.06765155385789 0
454 1 4 20.97883155975653 54.0082954865273 0
455 1 4 28.077005426378037 54.33287919452957 0
456 1 4 34.81016123832718 54.08198343092972 0
457 1 4 41.60829054207074 54.08934559125573 0
458 1 4 48.636656331063364 54.13709101731932 0
459 1 4 55.57134419687437 54.08904916018856 0
460 1 4 62.62332153430483 54.17263500402869 0
461 1 4 69.40104900440492 54.16609131451006 0
462 1 4 76.52226906350866 54.25606123557712 0
463 1 4 83.37776917670682 54.168312508056154 0
464 1 4 90.27605577214538 54.083224318848465 0
465 1 4 97.29753978709039 54.0331250766376 0
466 1 4 104.06598349068905 54.21559753473673 0
467 1 4 110.86231434639474 54.360769579258985 0
468 1 4 118.14041615928467 54.02530944327495 0
469 1 4 124.91985801584144 54.29912295417658 0
470 1 4 131.74969038661652 54.05814625827557 0
471 1 4 138.85730200017846 54.07918617725557 0
472 1 4 145.5928250710004 54.013603895330625 0
473 1 4 152.70169195739098 54.30277416857106 0
474 1 4 159.7224896419754 54.381799676208196 0
475 1 4 166.64585946120343 54.22217854309364 0
476 1 2 -3.137168198471905 56.33710084608648 0
477 1 4 3.5718047581192818 56.275825517697534 0
478 1 4 10.546450841521548 56.0956019422477 0
479 1 4 17.581247901056976 56.30340953891672 0
480 1 4 24.315155930925997 56.32161412625795 0
481 1 4 31.3527961119643 56.1644558371793 0
482 1 4 38.20868289989045 56.327954873485844 0
483 1 4 45.41107690802698 56.01054232428824 0
484 1 4 52.180172689566106 56.34435793322216 0
485 1 4 59.07576211577944 56.1743189039997 0
486 1 4 66.14399945788429 56.12487663514843 0
487 1 4 72.80891371981731 56.226076639194915 0
488 1 4 79.97593431246156 56.03318239804441 0
489 1 4 86.70914812678376 56.25354848860095 0
490 1 4 93.68817339966614 56.33689128587691 0
491 1 4 100.5576215589365 56.14852612980158 0
492 1 4 107.5207506892283 56.073579378841636 0
493 1 4 114.3904687971413 56.1904468429315 0
494 1 4 121.31518397529945 56.2521533222281 0
495 1 4 128.5540681681493 56.20400591666274 0
496 1 4 135.48974170298496 56.34756464474616 0
497 1 4 142.20759781610332 56.04575941340452 0
498 1 4 149.12896157581037 56.261828933941345 0
499 1 4 155.90172322866562 56.168867827691386 0
500 1 4 162.81785966597812 56.1983027859002 0
501 1 2 -3.1234119332004995 60.24295820917089 0
502 1 4 3.5788716086736656 60.33683586796772 0
503 1 4 10.756747685158802 60.15270486438408 0
504 1 4 17.507086753514262 60.0497072533193 0
505 1 4 24.31902178039812 60.14511711734665 0
506 1 4 31.233974452132557 60.12241431878024 0
507 1 4 38.400971218683345 60.277507199274034 0
508 1 4 45.05808079400184 60.26182816485645 0
509 1 4 52.04081907550315 60.180922403083535 0
510 1 4 59.130838890107476 60.14924317272902 0
511 1 4 66.13547274390028 60.24657339959279 0
512 1 4 73.13128743353616 60.077567955896185 0
513 1 4 79.74773601658713 60.266937836980624 0
514 1 4 86.8325697693931 60.15249641944047 0
515 1 4 93.86503286975096 60.25495285179283 0
516 1 4 100.5556766187494 60.27208850681431 0
517 1 4 107.67200924772325 60.08398323993019 0
518 1 4 114.54735680359889 60.00336539248762 0
519 1 4 121.32882100562166 60.29545723685894 0
520 1 4 128.42318880456273 60.26515010832312 0
521 1 4 135.3822016570201 60.372292452667494 0
522 1 4 142.36437094921368 60.08693694718902 0
523 1 4 149.26221642941695 60.12106463883521 0
524 1 4 156.1095837076752 60.060679960877565 0
525 1 4 163.155963979583 60.2739571235463 0
526 1 4 0.1107473233343658 62.05991082052473 0
527 1 4 7.296809590122145 62.13869133541358 0
528 1 4 13.915813744081566 62.39708488456398 0
529 1 4 20.996137985701235 62.38561589662556 0
530 1 4 27.713432593276437 62.28830536250638 0
531 1 4 34.86695236340954 62.27731108468299 0
532 1 4 41.908187179774906 62.01378273434375 0
533 1 4 48.603771534828645 62.19204094416089 0
534 1 4 55.42602035026531 62.00173285091735 0
535 1 4 62.62208995016192 62.057398235416755 0
536 1 4 69.54633668511417 62.026283672318186 0
537 1 4 76.27072420864766 62.06708025437756 0
538 1 4 83.27115465694177 62.32401793616042 0
539 1 4 90.27306547479847 62.399757114722185 0
540 1 4 97.25062694014154 62.17921211781947 0
541 1 4 104.20890490389755 62.07685041652586 0
542 1 4 110.98656540229476 62.01345134942958 0
543 1 4 117.98607240898066 62.16002124936423 0
544 1 4 124.71348473969303 62.28397110038921 0
545 1 4 131.67157539411835 62.01397386732399 0
546 1 4 138.8092326248509 62.045193255904906 0
547 1 4 145.80228910712196 62.0396924755307 0
548 1 4 152.71840450460712 62.0297631448243 0
549 1 4 159.4875881023429 62.20935050032385 0
550 1 4 166.424034953363 62.263035501642456 0
551 1 4 0.35611565398760253 66.16956046378552 0
552 1 4 7.005268858645119 66.24019766891134 0
553 1 4 14.058937701185151 66.04935008399585 0
554 1 4 20.85504219592973 66.38796946913686 0
555 1 4 27.783611668993114 66.13514673417349 0
556 1 4 34.79377662567862 66.05147847665792 0
557 1 4 41.720016791724085 66.1187812969321 0
558 1 4 48.76434122681204 66.09741336751843 0
559 1 4 55.73806096883877 66.18742665757122 0
560 1 4 62.60117765063729 66.24663546963569 0
561 1 4 69.5857201744449 66.38225083253644 0
562 1 4 76.47311987738213 66.3920844748133 0
563 1 4 83.22711006105315 66.2074439487739 0
564 1 4 90.27715653746085 66.23241723107442 0
565 1 4 97.09049573073501 66.04054699278795 0
566 1 4 103.950402893413 66.23052200126948 0
567 1 4 111.22033595611194 66.13637388577968 0
568 1 4 118.0725216865722 66.28540850451124 0
569 1 4 124.79068774752903 66.20671172748332 0
570 1 4 131.81774129663626 66.15251930742669 0
571 1 4 138.85805113592718 66.08924596096945 0
572 1 4 145.5451041610717 66.32300305602577 0
573 1 4 152.60705791574617 66.2479272700968 0
574 1 4 159.71499219245473 66.02513213152812 0
575 1 4 166.310846654989 66.04082259360989 0
576 1 2 -3.3025237837416848 68.21497854956796 0
577 1 4 3.693755837989193 68.13437865136626 0
578 1 4 10.441882356140882 68.27362449843591 0
579 1 4 17.573012794356003 68.22424633206927 0
580 1 4 24.575052576033745 68.35134280265727 0
581 1 4 31.323496678206475 68.09174170842573 0
582 1 4 38.494233135371694 68.17451813880146 0
583 1 4 45.196549242266585 68.23112009623921 0
584 1 4 52.10368843469368 68.0051601809268 0
585 1 4 59.16622783131829 68.30229681917571 0
586 1 4 66.04026971953148 68.1685825209708 0
587 1 4 73.09037270105064 68.11344667041341 0
588 1 4 79.79834088218874 68.39302250590592 0
589 1 4 86.81860381663508 68.01656817652027 0
590 1 4 93.73458864420701 68.13812101721989 0
591 1 4 100.4881538553736 68.38995273207375 0
592 1 4 107.4146263596552 68.16367998200636 0
593 1 4 114.58738558188239 68.0106036951465 0
594 1 4 121.47177428996685 68.14956436007701 0
595 1 4 128.21383352164048 68.21233497651333 0
596 1 4 135.14687136629087 68.36889234691031 0
597 1 4 142.22185105331 68.18692405526475 0
598 1 4 149.05175850079303 68.02910774198843 0
599 1 4 156.17140027630498 68.05775001081936 0
600 1 4 163.17510486289183 68.19593743685576 0
601 1 2 -3.158357774610236 72.38895423258886 0
602 1 4 3.5487319164360684 72.38065916132648 0
603 1 4 10.506411759175174 72.29045447919441 0
604 1 4 17.613614930588152 72.10716055276316 0
605 1 4 24.448111802216037 72.17830675882358 0
606 1 4 31.21840344834731 72.06688671548767 0
607 1 4 38.207344394428254 72.04191258788218 0
608 1 4 45.10597551933115 72.33873959057983 0
609 1 4 52.04316221247104 72.16450660728259 0
610 1 4 59.12366021549018 72.04537421946134 0