
14309 atoms
14896 bonds
16659 angles
20 atom types
6 bond types
14 angle types

-5.680607966083864 171.52447279080386 xlo xhi
-2.0 148.0 ylo yhi
-4 4 zlo zhi


Masses

1 0.00023757272634479943
2 0.0004513881800551189
3 0.0004989027253240789
4 0.0004989027253240789
5 0.0006652036337654383
6 0.00047514545268959887
7 0.0006889609063999184
8 0.0007364754516688783
9 0.0009265336327447178
10 0.0009740481780136776
11 0.0007839899969378382
12 0.0006414463611309584
13 0.0006176890884964785
14 0.0002138154537103195
15 0.00047514545268959887
16 0.000427630907420639
17 0.0005226599979585588
18 0.0005701745432275187
19 0.0007127181790343983
20 0.0006176890884964785

Pair Coeffs

1 0.40509979849834776 0.44544935907016964 0.5
2 0.40509979849834776 0.44544935907016964 0.5
3 0.40509979849834776 0.44544935907016964 0.5
4 0.40509979849834776 0.44544935907016964 0.5
5 0.40509979849834776 0.44544935907016964 0.5
6 0.40509979849834776 0.44544935907016964 0.5
7 0.40509979849834776 0.44544935907016964 0.5
8 0.40509979849834776 0.44544935907016964 0.5
9 0.40509979849834776 0.44544935907016964 0.5
10 0.40509979849834776 0.44544935907016964 0.5
11 0.40509979849834776 0.44544935907016964 0.5
12 0.40509979849834776 0.44544935907016964 0.5
13 0.40509979849834776 0.44544935907016964 0.5
14 0.40509979849834776 0.44544935907016964 0.5
15 0.40509979849834776 0.44544935907016964 0.5
16 0.40509979849834776 0.44544935907016964 0.5
17 0.40509979849834776 0.44544935907016964 0.5
18 0.40509979849834776 0.44544935907016964 0.5
19 0.40509979849834776 0.44544935907016964 0.5
20 0.40509979849834776 0.44544935907016964 0.5

Bond Coeffs

1 95.02909053791977 0.5
2 85.52618148412779 0.5
3 104.53199959171175 0.5
4 114.03490864550375 0.5
5 142.54363580687965 0.5
6 123.5378176992957 0.5

Angle Coeffs

1 7.151357229356033 180
2 5.213339420200548 180
3 9.51845647227288 180
4 12.35754529232723 180
5 24.13583064907661 180
6 15.711531832895204 180
7 6.030467808213474 120
8 8.166843820053952 120
9 7.3330488547875845 120
10 19.03317298493228 120
11 7.151357229356033 120
12 16.345959381385224 120
13 12.35754529232723 120
14 15.711531832895204 120

Atoms

1 1 1 -3.1978277785974463 0.3695674542500782 0
2 1 2 3.819481669945127 0.26327133530211955 0
3 1 3 10.708591934805924 0.05099374216383845 0
4 1 4 17.59207660038728 0.201976626089871 0
5 1 5 24.30961167178184 0.16512832562980007 0
6 1 5 31.45874498958148 0.14260640910639832 0
7 1 4 38.14393541860767 0.33684202948168324 0
8 1 3 45.06376321040627 0.3865467984228594 0
9 1 2 52.222833632649554 0.08279400126239707 0
10 1 6 59.03522591277033 0.1632339765720514 0
11 1 6 66.2031906799875 0.3987531619222557 0
12 1 6 73.14389019833578 0.04359589930812949 0
13 1 6 79.72231266424167 0.04330763489729748 0
14 1 2 86.91021925378821 0.3836109500383036 0
15 1 3 93.7251355343766 0.04556593566076357 0
16 1 4 100.60412039263448 0.14840223944852024 0
17 1 5 107.64723646430367 0.39391246465386076 0
18 1 5 114.68280997419893 0.25005865087726287 0
19 1 4 121.41010175381699 0.020158153924794767 0
20 1 3 128.4432602982701 0.11279147602724869 0
21 1 2 135.29645992263542 0.17639036178211598 0
22 1 6 142.35335184542717 0.11433375392691798 0
23 1 6 149.23447014837382 0.08482876800249475 0
24 1 6 156.27124396057187 0.07250048241528577 0
25 1 6 162.96365906303268 0.2717709382573012 0
26 1 7 0.393466958452263 2.1982431133432736 0
27 1 8 7.267107524769163 2.2328058244015594 0
28 1 7 13.876406090565288 2.1134531864888637 0
29 1 9 20.830535058949064 2.3413972233580935 0
30 1 10 27.77770824574715 2.221141125681914 0
31 1 9 34.88578391727854 2.1511267788388975 0
32 1 7 41.75314284996341 2.201561431643945 0
33 1 8 48.622266520249255 2.381586600738479 0
34 1 7 55.739136050914574 2.3378818146734934 0
35 1 8 62.62253736693732 2.292062351893585 0
36 1 8 69.35425926153707 2.3787775312796953 0
37 1 8 76.49457097083295 2.0770950931724528 0
38 1 7 83.48083191796717 2.069879671017649 0
39 1 8 90.28481402010422 2.1461103270045014 0
40 1 7 97.05115689349167 2.238268318590628 0
41 1 9 104.09543143444435 2.2522647051755906 0
42 1 10 111.22959762707899 2.25270371733928 0
43 1 9 117.92431617768534 2.3580483864719275 0
44 1 7 125.01991116994081 2.3802312692123206 0
45 1 8 131.96004374920187 2.196306871030358 0
46 1 7 138.72362099368542 2.292005136594196 0
47 1 8 145.66472651495656 2.0721702627529885 0
48 1 8 152.59632312514998 2.3051145498062207 0
49 1 8 159.51363940405395 2.3154515674953617 0
50 1 7 166.59000814677637 2.270524353670893 0
51 1 8 0.009247747796568895 6.128172168316785 0
52 1 7 6.9514506381206465 6.195712412942208 0
53 1 8 14.211890485455143 6.225725795886251 0
54 1 11 20.908700070913643 6.124424470248597 0
55 1 9 27.875612414920244 6.21895333851175 0
56 1 11 34.85400603003486 6.224837502828865 0
57 1 8 41.93653578748002 6.320879002472688 0
58 1 7 48.638486868003135 6.094341591457618 0
59 1 8 55.6890560414892 6.125507237481781 0
60 1 8 62.623928438273936 6.17143265534397 0
61 1 8 69.67118765081132 6.2132600332576775 0
62 1 8 76.46621355742441 6.023358614139301 0
63 1 8 83.25661519184621 6.392383455453 0
64 1 7 90.0753268608261 6.06071332768842 0
65 1 8 97.18984213455933 6.172594498791319 0
66 1 11 104.2624233796672 6.019608359663438 0
67 1 9 110.85179509817625 6.260060792828733 0
68 1 11 117.99964919580636 6.042373514855064 0
69 1 8 124.88763331724455 6.205574796937367 0
70 1 7 131.87975204342362 6.268666085250154 0
71 1 8 138.62050329104437 6.063694194577478 0
72 1 8 145.5358783275325 6.137066479575001 0
73 1 8 152.53037794423818 6.234572927067183 0
74 1 8 159.7465122122064 6.348627884170105 0
75 1 8 166.64135224849392 6.196364393760484 0
76 1 3 -3.1193314940569357 8.27753793803263 0
77 1 7 3.5153290808587974 8.076271290121305 0
78 1 8 10.643831472152415 8.159984577684291 0
79 1 7 17.644526282862035 8.096966939509622 0
80 1 11 24.38395767185173 8.377171917844798 0
81 1 11 31.35115769550047 8.105696665125029 0
82 1 7 38.491438704680775 8.210578861367638 0
83 1 8 45.4038661135952 8.146637267307575 0
84 1 7 52.275236518471644 8.04433060911897 0
85 1 8 59.19663346473547 8.071203411999772 0
86 1 7 66.05692306604206 8.365016083244244 0
87 1 7 73.0078404963885 8.102625567346402 0
88 1 8 79.83207005211845 8.14257805545305 0
89 1 7 86.65895167957892 8.062412829685869 0
90 1 8 93.79650234515763 8.230546950622017 0
91 1 7 100.5907703318174 8.389606756717674 0
92 1 11 107.7049111697165 8.00003936386399 0
93 1 11 114.53403017999513 8.167014594731842 0
94 1 7 121.61246824248073 8.17103192132505 0
95 1 8 128.25230045191728 8.21981855813428 0
96 1 7 135.22090950281864 8.112138110364151 0
97 1 8 142.16284087691074 8.116821953829236 0
98 1 7 149.1284237449226 8.042151551029484 0
99 1 7 156.20464168998924 8.251395702383286 0
100 1 8 162.84005243483594 8.1614028094349 0
101 1 6 -3.169044049151358 12.299018685858671 0
102 1 8 3.653681261603362 12.337064170945288 0
103 1 7 10.713212394607611 12.02760582363478 0
104 1 8 17.687402398124128 12.33735497386913 0
105 1 7 24.346484267545794 12.165040942733627 0
106 1 7 31.28141348163512 12.134187419568644 0
107 1 8 38.27359661543668 12.127548090353741 0
108 1 7 45.37720352979428 12.161904853672905 0
109 1 8 52.271596397315285 12.0411683821405 0
110 1 7 58.93269561093714 12.296375017048188 0
111 1 11 66.10247088305006 12.183560673405449 0
112 1 11 72.94148984378947 12.26544060768283 0
113 1 7 79.78330040281182 12.26680233276371 0
114 1 8 86.88373658558916 12.09118865898236 0
115 1 7 93.82870388974594 12.112328975073929 0
116 1 8 100.49216504804279 12.318575797534944 0
117 1 7 107.54841101110539 12.37924732217852 0
118 1 7 114.62854763150723 12.352986328737018 0
119 1 8 121.42691186243091 12.188144627337964 0
120 1 7 128.29240547220417 12.34159939840251 0
121 1 8 135.3523822245458 12.078721782313876 0
122 1 7 142.23746387788663 12.115425476120565 0
123 1 11 149.22070634855356 12.11197432887625 0
124 1 11 156.14537440680598 12.130465831900347 0
125 1 7 163.16800190025313 12.011115607965726 0
126 1 8 0.312903987673639 14.377227648554566 0
127 1 7 7.121290494904152 14.140138151628491 0
128 1 8 13.926557145048726 14.152169409140836 0
129 1 8 20.945123224271423 14.118417416922282 0
130 1 8 28.05400367847439 14.386245932239492 0
131 1 8 34.990115174342456 14.386263387440316 0
132 1 8 41.9678720846625 14.32251215284982 0
133 1 7 48.78379566332175 14.017570972713571 0
134 1 8 55.451779383448546 14.206662921585465 0
135 1 11 62.65676275382441 14.147584352472437 0
136 1 9 69.48169655633319 14.200545155593518 0
137 1 11 76.27576370783434 14.379833131857783 0
138 1 8 83.5256242885535 14.076582800303768 0
139 1 7 90.13892896538329 14.348053014777207 0
140 1 8 96.99593391301426 14.222923162445193 0
141 1 8 104.23391766901132 14.138255289968708 0
142 1 8 111.12238069802541 14.149768489544895 0
143 1 8 117.93516795873862 14.196372527830244 0
144 1 8 124.76876786884384 14.215160254397484 0
145 1 7 131.71263535308032 14.21278954007745 0
146 1 8 138.73124167665335 14.14066361789822 0
147 1 11 145.52463595345284 14.279816171916307 0
148 1 9 152.76583909943906 14.252366539419159 0
149 1 11 159.64238162173498 14.075126498835445 0
150 1 8 166.51548454906958 14.129193078597105 0
151 1 7 0.2465734073468846 18.154453395549318 0
152 1 8 7.163058863196741 18.285953834116366 0
153 1 7 14.085646358259957 18.230552649472475 0
154 1 8 20.997035792868388 18.17646274870013 0
155 1 8 27.79417732386961 18.398199076706973 0
156 1 8 34.843476614642235 18.325293863853727 0
157 1 7 41.72845301373625 18.184674355046397 0
158 1 8 48.787298776906425 18.121448872045633 0
159 1 7 55.601025529908306 18.084189577759155 0
160 1 9 62.46873374160665 18.251367619431395 0
161 1 10 69.6456302132325 18.342861076814593 0
162 1 9 76.49497341166344 18.028415613701718 0
163 1 7 83.43121396211521 18.302564704942323 0
164 1 8 90.29663775138226 18.08008670933164 0
165 1 7 97.2808781660774 18.29741777276669 0
166 1 8 104.1645567102512 18.30081938350517 0
167 1 8 110.95824334626761 18.38895630028442 0
168 1 8 118.1691721357979 18.094178085271206 0
169 1 7 124.81998949670285 18.198060178170135 0
170 1 8 132.0156461243801 18.272795524107654 0
171 1 7 138.6843712988904 18.09762631276003 0
172 1 9 145.62795341518773 18.2283153944749 0
173 1 10 152.58356560648255 18.351971160913386 0
174 1 9 159.70309288596914 18.04673806211737 0
175 1 7 166.537049467758 18.22314252976941 0
176 1 4 -3.2702928844129318 20.166048663350324 0
177 1 8 3.640671348735489 20.15345008593054 0
178 1 7 10.629731920319175 20.040087025244052 0
179 1 7 17.32447738689139 20.321186086983875 0
180 1 7 24.352560766501465 20.305782812486765 0
181 1 7 31.235673596504157 20.16253269037868 0
182 1 7 38.27547217257317 20.255336290071277 0
183 1 7 45.27167350332654 20.122493588541513 0
184 1 8 52.28512834904257 20.31728933492853 0
185 1 11 59.24881846952419 20.345490984318545 0
186 1 10 66.11418078092173 20.16127949086746 0
187 1 10 72.97741591124161 20.312785581689596 0
188 1 11 79.96160048908273 20.175826511707108 0
189 1 8 86.77783804294661 20.093681439417747 0
190 1 7 93.6302713521345 20.311975788564165 0
191 1 7 100.77214399427521 20.363610393708996 0
192 1 7 107.4538698982892 20.02268969268415 0
193 1 7 114.35997852045334 20.003043363869917 0
194 1 7 121.4404024637345 20.310619237056816 0
195 1 7 128.43398824789585 20.067931498228383 0
196 1 8 135.30799322517572 20.286980092543658 0
197 1 11 142.07856933857968 20.039572912906817 0
198 1 10 148.9660621378819 20.321978982899623 0
199 1 10 156.14491900426864 20.37481145730225 0
200 1 11 162.93734844770367 20.1523379991494 0
201 1 4 -3.3740103667089265 24.077256982588157 0
202 1 8 3.6296926260154927 24.089146743671595 0
203 1 7 10.637350852884875 24.05681745938264 0
204 1 7 17.67441841860785 24.129856454042155 0
205 1 7 24.462518601194922 24.37138964184891 0
206 1 7 31.485013542684083 24.052450612042904 0
207 1 7 38.46469089053123 24.09762287712523 0
208 1 7 45.3661372046407 24.097494067180186 0
209 1 8 52.12968736910617 24.34820511428073 0
210 1 11 59.11465529378051 24.196060752712224 0
211 1 10 65.8584380722781 24.092031531235023 0
212 1 10 72.85866690400634 24.25522396600468 0
213 1 11 79.76027716719149 24.256857975515008 0
214 1 8 86.72715910373041 24.368910658877343 0
215 1 7 93.87779502423194 24.272348677004125 0
216 1 7 100.56279034567025 24.260065480795976 0
217 1 7 107.57145462934929 24.107836862747916 0
218 1 7 114.4994122261133 24.04956905575459 0
219 1 7 121.38468195054985 24.24029257687931 0
220 1 7 128.26712978343159 24.218324329062817 0
221 1 8 135.23412591194673 24.07373919720814 0
222 1 11 142.28160769829088 24.09861042317541 0
223 1 10 149.20821469959424 24.05106517124617 0
224 1 10 156.27624654322068 24.241466728182328 0
225 1 11 163.11372241067477 24.1526046338316 0
226 1 7 0.1967849307355495 26.00898223211306 0
227 1 8 7.307629528239219 26.134352231699207 0
228 1 7 13.912015024305122 26.19478004598978 0
229 1 8 20.884993298175875 26.298397906886017 0
230 1 8 27.992364617860254 26.143111172716793 0
231 1 8 34.81501141158488 26.08642684130739 0
232 1 7 41.7684342617372 26.191121851691335 0
233 1 8 48.62859448621495 26.228169685429823 0
234 1 7 55.655622242904606 26.070211466364444 0
235 1 9 62.4775844687819 26.314922311114568 0
236 1 10 69.5035355819892 26.160817830430638 0
237 1 9 76.45990602054054 26.240986951657618 0
238 1 7 83.32595112220858 26.105118809082317 0
239 1 8 90.19155954888336 26.238190335592382 0
240 1 7 97.00595297983118 26.126990424830215 0
241 1 8 104.29867683928268 26.27866445386692 0
242 1 8 110.9961965406399 26.070616538986602 0
243 1 8 117.8965593655627 26.222015895262487 0
244 1 7 124.91458445135919 26.003818691841335 0
245 1 8 131.73052950650546 26.266801464977135 0
246 1 7 138.86868284234066 26.276640997619012 0
247 1 9 145.64859121941197 26.305050501490314 0
248 1 10 152.78888844122105 26.151717145232542 0
249 1 9 159.72721871890928 26.296081987107645 0
250 1 7 166.324259080806 26.25641857834777 0
251 1 8 0.3799579700532255 30.2729099501015 0
252 1 7 7.003509717347578 30.058329153480486 0
253 1 8 14.225057677863408 30.377850366010342 0
254 1 8 21.012759852826417 30.144671124368347 0
255 1 8 27.823077019818495 30.171137623866535 0
256 1 8 34.73668716649469 30.36423517986391 0
257 1 8 41.836534179556786 30.336457037504637 0
258 1 7 48.60753405247676 30.212109094343557 0
259 1 8 55.67084267060125 30.252327843047073 0
260 1 11 62.46775288431813 30.040665208127244 0
261 1 9 69.67631837645435 30.102991436965837 0
262 1 11 76.45343547322581 30.025823567464183 0
263 1 8 83.41330331217571 30.162392676360984 0
264 1 7 90.24138972386794 30.235761910928037 0
265 1 8 97.06592574598642 30.074503646120007 0
266 1 8 104.02339814753084 30.35300244259763 0
267 1 8 111.22087850746726 30.357738176706082 0
268 1 8 118.12554058786552 30.227373672170415 0
269 1 8 125.08600042193304 30.116082494278206 0
270 1 7 131.69172673639656 30.074129024200552 0
271 1 8 138.82003655676908 30.12894670624445 0
272 1 11 145.617980339958 30.030696293701517 0
273 1 9 152.7123122969986 30.10813458027983 0
274 1 11 159.42105742576447 30.062068395996768 0
275 1 8 166.44155932746574 30.014872665970387 0
276 1 6 -3.3599838259395822 32.28347337063698 0
277 1 8 3.7144243713173557 32.110633769268254 0
278 1 7 10.570390461602548 32.045282088500834 0
279 1 8 17.564847897861135 32.37945792222837 0
280 1 7 24.35543815756764 32.35966531518249 0
281 1 7 31.496614099231707 32.398393898510406 0
282 1 8 38.12022601532701 32.01487962912126 0
283 1 7 45.26071890319623 32.0321709332849 0
284 1 8 52.27271186004538 32.205534948339334 0
285 1 7 58.920704263954626 32.13876648895452 0
286 1 11 66.21297752547147 32.189790917431644 0
287 1 11 73.10196215420224 32.31587633518718 0
288 1 7 79.86409732166203 32.3979384624642 0
289 1 8 86.69014146579754 32.21014983758453 0
290 1 7 93.5853857158757 32.38649851770214 0
291 1 8 100.7648264122887 32.33660988524048 0
292 1 7 107.57048232137711 32.17572790767638 0
293 1 7 114.6028231539481 32.33877686316549 0
294 1 8 121.2553614307624 32.035973784744264 0
295 1 7 128.3815218723528 32.09983036605789 0
296 1 8 135.46723083195351 32.37754292218284 0
297 1 7 142.10006664403252 32.0136659499572 0
298 1 11 149.18389184343243 32.26310448123146 0
299 1 11 155.9251441101186 32.201536836428765 0
300 1 7 162.94166456736215 32.0007110425817 0
301 1 3 -3.089842137469942 36.12851918072134 0
302 1 7 3.8566218686962856 36.112356584367404 0
303 1 8 10.450929521543776 36.09423141364949 0
304 1 7 17.69886964729348 36.01568701560509 0
305 1 11 24.566712445087294 36.311675348209775 0
306 1 11 31.56566876571039 36.17347772336353 0
307 1 7 38.48925755108206 36.2032848759009 0
308 1 8 45.34480364290729 36.076309458111055 0
309 1 7 51.98482473946226 36.39250048138642 0
310 1 8 59.01508062700754 36.11745149129586 0
311 1 7 66.10835477660703 36.04265382079603 0
312 1 7 72.81244923675759 36.12635012722097 0
313 1 8 79.67897747819192 36.0704392346429 0
314 1 7 86.70593234541931 36.03019784719801 0
315 1 8 93.55259580204932 36.09308485828938 0
316 1 7 100.63057606662515 36.059372746374166 0
317 1 11 107.69607818774956 36.06376411125494 0
318 1 11 114.64343774220879 36.03956958945967 0
319 1 7 121.32600277318463 36.359825523336966 0
320 1 8 128.22634682249293 36.114285466688926 0
321 1 7 135.3072740749835 36.27582951062323 0
322 1 8 142.07205214744096 36.03477670620776 0
323 1 7 148.9951925007165 36.3925161741881 0
324 1 7 155.97237558277524 36.018643599729934 0
325 1 8 163.06494962477518 36.000084700444916 0
326 1 8 0.05963775093881814 38.22131514842525 0
327 1 7 7.287133869575996 38.33301914048983 0
328 1 8 14.065891821826046 38.27034030335569 0
329 1 11 20.804022820643446 38.149897805837035 0
330 1 9 27.912212427613312 38.08944027246854 0
331 1 11 34.80151160425744 38.27874796773061 0
332 1 8 41.83123463265104 38.26357137635372 0
333 1 7 48.65532178123114 38.18187418168805 0
334 1 8 55.8148097992117 38.29005935671566 0
335 1 8 62.43813065785688 38.07207011691755 0
336 1 8 69.64443249572807 38.267056664020146 0
337 1 8 76.35361536670028 38.03468156414201 0
338 1 8 83.53791838465115 38.3160730903104 0
339 1 7 90.3083591451774 38.109334513951644 0
340 1 8 97.38437823981874 38.167755837907414 0
341 1 11 104.10211894786401 38.0125104570176 0
342 1 9 111.0969753350846 38.081741511270295 0
343 1 11 117.9241524796905 38.03111236372071 0
344 1 8 124.78012018150082 38.18104964716072 0
345 1 7 131.88306099303688 38.03944220446616 0
346 1 8 138.79449509055718 38.36168186516521 0
347 1 8 145.83733841102108 38.01326581040438 0
348 1 8 152.74023509474756 38.31491300166329 0
349 1 8 159.6513974626001 38.37227208045046 0
350 1 8 166.50635451629066 38.33191745665049 0
351 1 7 0.0009204682721200453 42.03582684039626 0
352 1 8 7.028020564320468 42.30559392690728 0
353 1 7 14.146574795048304 42.05474061646822 0
354 1 9 21.018622062847673 42.08721842863065 0
355 1 10 27.734033469009113 42.04349943472131 0
356 1 9 35.00967877204173 42.06178244430487 0
357 1 7 41.81316895773437 42.11053864752989 0
358 1 8 48.689235146166006 42.255609649076455 0
359 1 7 55.51337890445095 42.24220704845457 0
360 1 8 62.358488521185045 42.11466723398325 0
361 1 8 69.41970612604372 42.30569501946247 0
362 1 8 76.31489074841329 42.03158221472748 0
363 1 7 83.34643416976456 42.0666322745607 0
364 1 8 90.10166729648543 42.11017120411685 0
365 1 7 97.10322980204339 42.000721033230946 0
366 1 9 103.93430214762218 42.010578635439714 0
367 1 10 110.87935607982025 42.12448405235362 0
368 1 9 117.89159145525298 42.01982702502922 0
369 1 7 124.93587359864749 42.21766436048093 0
370 1 8 131.70224836170453 42.3525347967632 0
371 1 7 138.87290155799775 42.35956405549823 0
372 1 8 145.62973659968875 42.17919588613771 0
373 1 8 152.51836858574097 42.310535305598044 0
374 1 8 159.44511671613637 42.044099308317804 0
375 1 7 166.5197671173426 42.29120992507923 0
376 1 2 -3.380726841529464 44.259682247088264 0
377 1 7 3.5514846830037015 44.308132685477744 0
378 1 8 10.732533348360295 44.11164605268484 0
379 1 11 17.47765820832817 44.05718054159772 0
380 1 10 24.43491453266859 44.38057087268586 0
381 1 10 31.44716056918487 44.34491580741339 0
382 1 11 38.18549727050382 44.22302695256326 0
383 1 8 45.09500241767204 44.0354210317484 0
384 1 7 52.0421775458809 44.22979764855131 0
385 1 7 59.161129019581736 44.19310897070472 0
386 1 7 66.08391449993577 44.1851993651984 0
387 1 7 72.88041572087708 44.144769625403534 0
388 1 7 79.91144973807096 44.29522936627784 0
389 1 7 86.73830689351007 44.042779467857784 0
390 1 8 93.8112744394541 44.2398706799991 0
391 1 11 100.77357101168927 44.10259274842837 0
392 1 10 107.56968869411116 44.046485724476554 0
393 1 10 114.61778434830433 44.15020580403622 0
394 1 11 121.3097864809744 44.25058363140438 0
395 1 8 128.30910424275814 44.01090836351914 0
396 1 7 135.2355561218543 44.335856467703174 0
397 1 7 142.40534187922626 44.372222033688246 0
398 1 7 149.22759559310754 44.16164276927685 0
399 1 7 156.15479672243768 44.09673662664511 0
400 1 7 162.81736233713195 44.271488954846554 0
401 1 2 -3.069127561486945 48.18578905112194 0
402 1 7 3.733205390717878 48.07256248771071 0
403 1 8 10.734562386504914 48.39826846263709 0
404 1 11 17.430231747300983 48.20313161248433 0
405 1 10 24.58934439002777 48.227784200496735 0
406 1 10 31.433972704049694 48.149384189372526 0
407 1 11 38.35647676702207 48.03780067984913 0
408 1 8 45.288438011322214 48.399682953634034 0
409 1 7 51.98301238499322 48.330596775285926 0
410 1 7 59.13074826687768 48.05430521945273 0
411 1 7 66.1225068497103 48.34358643764928 0
412 1 7 73.10667110672534 48.294707206248994 0
413 1 7 79.9736945360895 48.03857444081177 0
414 1 7 86.7234830846051 48.17083948441499 0
415 1 8 93.55940117127871 48.1169911504709 0
416 1 11 100.7276837390997 48.07696985425915 0
417 1 10 107.52495524060728 48.088640425718005 0
418 1 10 114.70000007097646 48.130267191946494 0
419 1 11 121.58725317294927 48.2993195125906 0
420 1 8 128.26326713001333 48.2876072974384 0
421 1 7 135.41438864271277 48.290850624318615 0
422 1 7 142.42373898160267 48.12246439544049 0
423 1 7 149.22956861441514 48.03943570792002 0
424 1 7 156.20342845069854 48.17282532741622 0
425 1 7 162.84263995580483 48.032429679886825 0
426 1 7 0.3664144971115358 50.04566911700359 0
427 1 8 7.2898657624579455 50.132460344082254 0
428 1 7 13.860676896044804 50.211001463781706 0
429 1 9 20.87286324633858 50.18586540064675 0
430 1 10 27.752635229177912 50.27628771791878 0
431 1 9 34.916892742947944 50.09349016331818 0
432 1 7 41.79529379825172 50.03272714047581 0
433 1 8 48.61085648002898 50.07075406829214 0
434 1 7 55.79711053582133 50.09656872147781 0
435 1 8 62.55785343153117 50.153556114568325 0
436 1 8 69.58219679531801 50.18825123630771 0
437 1 8 76.48621446340559 50.25830945768497 0
438 1 7 83.21135984758774 50.08983219723668 0
439 1 8 90.28732818458307 50.03221015049691 0
440 1 7 97.31895948345178 50.32902515846363 0
441 1 9 104.0166903465106 50.03529479661405 0
442 1 10 111.206180609965 50.30709623997806 0
443 1 9 118.14809163674646 50.005309867424366 0
444 1 7 124.84055291140828 50.18280177642762 0
445 1 8 131.8284123065654 50.13762412475667 0
446 1 7 138.95013784782574 50.22725300715878 0
447 1 8 145.65646523519302 50.38514899780282 0
448 1 8 152.62564903052254 50.09697492135766 0
449 1 8 159.566249277352 50.03264031061395 0
450 1 7 166.4695099069257 50.145791003654736 0
451 1 8 0.24558992062320806 54.01155796380739 0
452 1 7 7.01258484179933 54.04769994390657 0
453 1 8 13.90204193843193 54.03317039208485 0
454 1 11 20.88319632103165 54.10018739622043 0
455 1 9 28.03082124918047 54.360545983428636 0
456 1 11 34.957827587045145 54.301424208699025 0
457 1 8 41.65156514961978 54.054220245797 0
458 1 7 48.528547007740706 54.06285605834465 0
459 1 8 55.5465171574205 54.24359967737145 0
460 1 8 62.464389680718945 54.23152839893655 0
461 1 8 69.48947668010571 54.021920176734916 0
462 1 8 76.51168108558794 54.26559942817725 0
463 1 8 83.32354190891719 54.05449835972557 0
464 1 7 90.31359088628233 54.078274619989855 0
465 1 8 97.09309697839025 54.0305150136671 0
466 1 11 104.1669568832437 54.069023033480676 0
467 1 9 111.07624924229573 54.255237693724 0
468 1 11 117.8045316445757 54.167699191843596 0
469 1 8 125.06603370047672 54.0331108210474 0
470 1 7 132.0098788626254 54.37046436771462 0
471 1 8 138.5820027791512 54.182167330767996 0
472 1 8 145.79769923292218 54.001424395657956 0
473 1 8 152.64988010007457 54.139396461627456 0
474 1 8 159.61937053224392 54.382162287757254 0
475 1 8 166.41146968308314 54.39867324191396 0
476 1 3 -3.330776301253982 56.18932610468754 0
477 1 7 3.7702326683765275 56.19009936839704 0
478 1 8 10.767035442765136 56.22734811628797 0
479 1 7 17.53761145691953 56.179016184012724 0
480 1 11 24.58604191655006 56.009538867206345 0
481 1 11 31.489187931577607 56.10797356996159 0
482 1 7 38.116510939574084 56.387288413646594 0
483 1 8 45.13379115601118 56.24754991915525 0
484 1 7 52.29655170576363 56.17530090176094 0
485 1 8 59.128601181333586 56.242481264049836 0
486 1 7 65.86785231857381 56.113682098194055 0
487 1 7 72.81469583442575 56.06559084100202 0
488 1 8 79.99265281383158 56.29643153487775 0
489 1 7 86.66609518748645 56.211159316637314 0
490 1 8 93.92439307433872 56.057888575283336 0
491 1 7 100.60195364937347 56.21548035304445 0
492 1 11 107.75328902712538 56.14254253862115 0
493 1 11 114.51816796185376 56.14153866991842 0
494 1 7 121.3390771755174 56.1975590818137 0
495 1 8 128.38067377958976 56.03808460535511 0
496 1 7 135.29375223579143 56.055348847201984 0
497 1 8 142.04855419556537 56.047087074014456 0
498 1 7 148.9749126430059 56.338487733277994 0
499 1 7 156.16674045954025 56.16722211524434 0
500 1 8 162.87754181685543 56.116498549929965 0
501 1 6 -3.238448043508327 60.274667824350104 0
502 1 8 3.653157818393526 60.29457013981601 0
503 1 7 10.534586377972905 60.089675296700094 0
504 1 8 17.616647860792686 60.37487670417085 0
505 1 7 24.346332399860373 60.102515953969515 0
506 1 7 31.193652585521004 60.27555136212588 0
507 1 8 38.126545050367916 60.118623607564494 0
508 1 7 45.17438115595192 60.043497259202574 0
509 1 8 51.98179980672042 60.29969747673083 0
510 1 7 59.252511280584216 60.039763697441174 0
511 1 11 65.91185132775117 60.17730981942282 0
512 1 11 72.8650524199665 60.10243191639477 0
513 1 7 79.83327737375318 60.24972604902344 0
514 1 8 86.88762385062257 60.058471005696255 0
515 1 7 93.80610670658592 60.21469031631529 0
516 1 8 100.84268402111539 60.24438127324203 0
517 1 7 107.5120234283898 60.12205848617608 0
518 1 7 114.38379125960127 60.163838209577484 0
519 1 8 121.54784463088365 60.1969894939129 0
520 1 7 128.51372154633333 60.00150721371331 0
521 1 8 135.3357574842882 60.261654171701416 0
522 1 7 142.35354904633482 60.33664898435258 0
523 1 11 149.28661718062935 60.297068394978 0
524 1 11 156.08078479170615 60.33407296989226 0
525 1 7 163.00721387232477 60.39701645391129 0
526 1 8 0.04303342118033107 62.288356823326524 0
527 1 7 6.94134496011786 62.242633238887706 0
528 1 8 13.945675751399705 62.30058236711174 0
529 1 8 21.059070936645067 62.13502595936323 0
530 1 8 27.858804585671685 62.34898001572314 0
531 1 8 34.94082236510036 62.36025489318079 0
532 1 8 41.582733542121524 62.36930954309592 0
533 1 7 48.64855072117309 62.33553619726842 0
534 1 8 55.671986572686805 62.279102909652664 0
535 1 11 62.41467693348888 62.38782438450656 0
536 1 9 69.43931404903401 62.319061388042236 0
537 1 11 76.59272236105144 62.19307684473934 0
538 1 8 83.52180403707095 62.17366441469283 0
539 1 7 90.15547455827098 62.25447620477898 0
540 1 8 97.14176217058068 62.02899596170012 0
541 1 8 104.20111793330254 62.142513875420605 0
542 1 8 111.15932285004615 62.38940319955296 0
543 1 8 117.8182483070716 62.07296986420911 0
544 1 8 124.93277004992252 62.290595973199196 0
545 1 7 131.71490416422506 62.1305984754732 0
546 1 8 138.57319159558293 62.34681061740499 0
547 1 11 145.8071793241163 62.03060273137746 0
548 1 9 152.503432562739 62.194327111567404 0
549 1 11 159.44810110249736 62.3404977905987 0
550 1 8 166.29715897675064 62.217628263486475 0
551 1 7 0.0702952976052806 66.11742499996612 0
552 1 8 7.103689857010005 66.13328770894643 0
553 1 7 14.067052902272016 66.37485637545072 0
554 1 8 20.935778776498424 66.35240492365003 0
555 1 8 28.003705310917212 66.3185328709215 0
556 1 8 34.80498410957589 66.01662173787572 0
557 1 7 41.67442508110706 66.38290527543636 0
558 1 8 48.81830453719331 66.34143405958682 0
559 1 7 55.77417999007859 66.05658673966511 0
560 1 9 62.37294918110584 66.20514598085973 0
561 1 10 69.36632049271752 66.21022914096345 0
562 1 9 76.53914515163842 66.14427177374931 0
563 1 7 83.26833608862374 66.28048457981437 0
564 1 8 90.11414440486931 66.1991615420145 0
565 1 7 97.29781939310055 66.2948441016062 0
566 1 8 104.13079790066932 66.13660724509143 0
567 1 8 110.98690184237205 66.08720996825528 0
568 1 8 117.7928925446177 66.34452693747781 0
569 1 7 124.97030463496479 66.38410132524052 0
570 1 8 131.77370352167472 66.26014891442139 0
571 1 7 138.75168854649277 66.24777499874227 0
572 1 9 145.50378580166347 66.35388073270981 0
573 1 10 152.77672405350745 66.13521943796904 0
574 1 9 159.65942073320002 66.2954229754992 0
575 1 7 166.54849775887166 66.06118057169849 0
576 1 4 -3.359999538123823 68.35550229181524 0
577 1 8 3.4680179728956433 68.00631820405034 0
578 1 7 10.423331750680111 68.11782928631236 0
579 1 7 17.411399963083774 68.18099241775361 0
580 1 7 24.54423692193787 68.34001315753278 0