
14309 atoms
14896 bonds
16659 angles
29 atom types
8 bond types
21 angle types

-5.680607966083864 171.52447279080386 xlo xhi
-2.0 148.0 ylo yhi
-4 4 zlo zhi


Masses

1 0.0002026360338573156
2 0.000337726723095526
3 0.0005403627569528416
4 0.0004953325272067714
5 0.0004503022974607014
6 0.0006979685610640871
7 0.0006304232164449819
8 0.0004052720677146312
9 0.0005403627569528415
10 0.000675453446191052
11 0.0008105441354292624
12 0.0009006045949214028
13 0.0009906650544135428
14 0.0009456348246674729
15 0.0007204836759371222
16 0.0007204836759371223
17 0.0010356952841596133
18 0.001035695284159613
19 0.00045030229746070133
20 0.00047281741233373643
21 0.00018012091898428055
22 0.0004052720677146312
23 0.0002701813784764208
24 0.0005403627569528416
25 0.00045030229746070133
26 0.0003602418379685611
27 0.0007204836759371222
28 0.000675453446191052
29 0.0006304232164449819

Pair Coeffs

1 0.40509979849834776 0.44544935907016964 0.5
2 0.40509979849834776 0.44544935907016964 0.5
3 0.40509979849834776 0.44544935907016964 0.5
4 0.40509979849834776 0.44544935907016964 0.5
5 0.40509979849834776 0.44544935907016964 0.5
6 0.40509979849834776 0.44544935907016964 0.5
7 0.40509979849834776 0.44544935907016964 0.5
8 0.40509979849834776 0.44544935907016964 0.5
9 0.40509979849834776 0.44544935907016964 0.5
10 0.40509979849834776 0.44544935907016964 0.5
11 0.40509979849834776 0.44544935907016964 0.5
12 0.40509979849834776 0.44544935907016964 0.5
13 0.40509979849834776 0.44544935907016964 0.5
14 0.40509979849834776 0.44544935907016964 0.5
15 0.40509979849834776 0.44544935907016964 0.5
16 0.40509979849834776 0.44544935907016964 0.5
17 0.40509979849834776 0.44544935907016964 0.5
18 0.40509979849834776 0.44544935907016964 0.5
19 0.40509979849834776 0.44544935907016964 0.5
20 0.40509979849834776 0.44544935907016964 0.5
21 0.40509979849834776 0.44544935907016964 0.5
22 0.40509979849834776 0.44544935907016964 0.5
23 0.40509979849834776 0.44544935907016964 0.5
24 0.40509979849834776 0.44544935907016964 0.5
25 0.40509979849834776 0.44544935907016964 0.5
26 0.40509979849834776 0.44544935907016964 0.5
27 0.40509979849834776 0.44544935907016964 0.5
28 0.40509979849834776 0.44544935907016964 0.5
29 0.40509979849834776 0.44544935907016964 0.5

Bond Coeffs

1 81.05441354292624 0.5
2 54.03627569528416 0.5
3 108.07255139056832 0.5
4 90.06045949214027 0.5
5 72.04836759371221 0.5
6 144.09673518742443 0.5
7 135.0906892382104 0.5
8 126.08464328899638 0.5

Angle Coeffs

1 4.4376061784092045 180
2 1.314846275084209 180
3 10.518770200673671 180
4 6.087251273538002 180
5 3.1166726520514576 180
6 24.93338121641166 180
7 20.544473048190756 180
8 16.703417494588283 180
9 2.028619967272779 120
10 10.518770200673671 120
11 7.711708358265153 120
12 4.808580663165105 120
13 22.527148067297386 120
14 16.703417494588283 120
15 4.4376061784092045 120
16 6.241907591608551 120
17 4.122582873083938 120
18 6.087251273538002 120
19 14.795632809738791 120
20 18.425897710160314 120
21 20.544473048190756 120

Atoms

1 1 1 -3.4029570990931504 0.007015514519688093 0
2 1 2 3.5649122490917855 0.27254333445368767 0
3 1 3 10.40317380405304 0.23587308907640409 0
4 1 4 17.602284947644847 0.23297991034733317 0
5 1 5 24.58338108522421 0.2835063317663377 0
6 1 6 31.344908212058975 0.1284300737828574 0
7 1 7 38.26152852545392 0.1516408846095183 0
8 1 7 45.04848487737453 0.16078448970167294 0
9 1 7 52.17206157958423 0.09111833710503721 0
10 1 7 59.207121766261096 0.3395966689161512 0
11 1 6 65.89522866621816 0.2095404657054105 0
12 1 5 72.82406003812213 0.06639766542526866 0
13 1 4 79.69695558417187 0.2468837899294164 0
14 1 3 86.94080093530907 0.2807615696460266 0
15 1 2 93.70542065502842 0.18448867872939245 0
16 1 8 100.70835118247523 0.05520493580888473 0
17 1 8 107.55618390304727 0.14857308338869454 0
18 1 8 114.66713751466138 0.13941494284497985 0
19 1 8 121.30000463982103 0.0438572422348226 0
20 1 8 128.223589788908 0.2817406989478922 0
21 1 8 135.32557700572968 0.3502139422626675 0
22 1 8 142.3774949608741 0.049423475446149605 0
23 1 2 149.2639331567081 0.0007933863133626318 0
24 1 3 155.8863695756526 0.17502398015817333 0
25 1 4 163.0872081509993 0.28969340949108185 0
26 1 9 0.09279306433994777 2.01296179845248 0
27 1 10 6.986169563819918 2.3331272870976068 0
28 1 11 13.884250949895575 2.3485511164722315 0
29 1 7 20.922340267074787 2.3390917288241972 0
30 1 12 27.853393484398058 2.2201787179709656 0
31 1 13 34.70507962672044 2.1607837502134104 0
32 1 14 41.80493276370108 2.1430481685682987 0
33 1 14 48.7077352583975 2.0773544393360925 0
34 1 14 55.806747474267716 2.1434519952362914 0
35 1 13 62.47620174836871 2.273410433649997 0
36 1 12 69.36831607009191 2.040740458736977 0
37 1 7 76.34486123165318 2.151904626486569 0
38 1 11 83.4767785063428 2.1814474716616745 0
39 1 10 90.43619352276765 2.3376570105881376 0
40 1 9 97.09987839274504 2.3982966797590426 0
41 1 10 104.01584452162831 2.215071998460507 0
42 1 10 110.85542589791521 2.3584779588353864 0
43 1 10 118.1508250653582 2.3197628360643328 0
44 1 10 124.9672150635446 2.314018820182951 0
45 1 10 131.6535810199895 2.066886140273358 0
46 1 10 138.60371554215794 2.053035335741783 0
47 1 9 145.543367716664 2.181349288034987 0
48 1 10 152.76003749022072 2.196317099428231 0
49 1 11 159.50470814853756 2.265456809473261 0
50 1 7 166.5223513765585 2.167476092720329 0
51 1 10 0.21870339672423442 6.081990825259949 0
52 1 9 7.0009403589725405 6.2153739263741015 0
53 1 11 14.002530427064746 6.24809394739049 0
54 1 15 20.809923897075507 6.3745651503564975 0
55 1 16 27.758032810583376 6.345113265438057 0
56 1 17 34.824701517177296 6.00863250281314 0
57 1 14 41.8001012409484 6.264191723060852 0
58 1 14 48.55707472491419 6.301136501477908 0
59 1 14 55.597588136771414 6.0950923582251475 0
60 1 17 62.60013887037377 6.208613581149075 0
61 1 16 69.56071503059759 6.005458315335017 0
62 1 15 76.53519833686182 6.1238954255893585 0
63 1 11 83.35068652535945 6.177188365148635 0
64 1 9 90.40154093556356 6.214824792999968 0
65 1 10 96.99824510858647 6.064059579198071 0
66 1 11 104.29282209680137 6.249138547894604 0
67 1 11 111.06491350538133 6.15564762355721 0
68 1 11 118.01522056757916 6.221777979467418 0
69 1 11 124.96086242314055 6.036386286831403 0
70 1 11 131.80419010235462 6.090654032783867 0
71 1 11 138.92974420295607 6.397544582759024 0
72 1 10 145.83136641675105 6.10539254444776 0
73 1 9 152.46881551970858 6.07784049237299 0
74 1 11 159.58591038913528 6.140454825107372 0
75 1 15 166.44790361490243 6.207614727454694 0
76 1 3 -3.2634612795973474 8.05731117109034 0
77 1 9 3.580630585562043 8.280475954006931 0
78 1 10 10.690318521760172 8.237860953690687 0
79 1 11 17.350064179817547 8.084120599243041 0
80 1 7 24.294978216643695 8.044002302065707 0
81 1 12 31.35727262607839 8.0921102194799 0
82 1 13 38.456303991067166 8.125789378286767 0
83 1 14 45.398309349651115 8.000042194382457 0
84 1 14 52.24581338627833 8.393410217854997 0
85 1 13 59.08822637825883 8.005473585622763 0
86 1 12 65.9992204644092 8.115090355130068 0
87 1 7 73.03895834522609 8.042025425625233 0
88 1 11 79.9416595339893 8.008590243229666 0
89 1 10 86.63479209432018 8.356005653181672 0
90 1 9 93.60477914122868 8.304262125791885 0
91 1 11 100.75655155275521 8.039270529294942 0
92 1 11 107.7090530054271 8.19688569573931 0
93 1 11 114.54777993483889 8.267179527672885 0
94 1 11 121.48064113138916 8.001477200481936 0
95 1 11 128.37634307258688 8.240009662456451 0
96 1 11 135.45785206642304 8.267499552477574 0
97 1 11 142.37967347732325 8.077048705575379 0
98 1 9 149.23765413688642 8.039000240143755 0
99 1 10 155.91357956190902 8.057748816052154 0
100 1 11 163.1266318867547 8.338555795268284 0
101 1 3 -3.1120937931797994 12.24149735759301 0
102 1 10 3.477809056410157 12.263270403109695 0
103 1 9 10.637754137113491 12.057500990896582 0
104 1 11 17.339690738031113 12.349800425226524 0
105 1 15 24.272550890346732 12.204864194191604 0
106 1 16 31.54669630452108 12.165600802566866 0
107 1 17 38.48980723211427 12.125056276895798 0
108 1 13 45.26708565287649 12.138807749123904 0
109 1 13 52.19344267166847 12.165193669830412 0
110 1 17 58.919873566147956 12.150566841891266 0
111 1 16 65.82322215254098 12.36960633351562 0
112 1 15 72.83748457213191 12.103298516162646 0
113 1 11 79.90391457535098 12.056717328980953 0
114 1 9 86.75743431723585 12.301919549984351 0
115 1 10 93.7805309781007 12.140044021789716 0
116 1 11 100.83132477199 12.398031883441016 0
117 1 15 107.75637925179845 12.234438049090137 0
118 1 15 114.37612650663323 12.35825667504182 0
119 1 15 121.40228549836834 12.043669073945185 0
120 1 15 128.30742860924244 12.13119654245888 0
121 1 15 135.30556028851393 12.043668015510987 0
122 1 11 142.28246373400714 12.115793778534782 0
123 1 10 149.05114433622057 12.21271995355658 0
124 1 9 156.06911354649773 12.130954862946977 0
125 1 11 162.83774582173473 12.057504251122118 0
126 1 11 0.044055667248749236 14.175854512936754 0
127 1 9 7.072891172198506 14.224500717764712 0
128 1 10 14.114741946499779 14.385335213766156 0
129 1 11 20.98466594626147 14.158501786698713 0
130 1 7 27.910942974819147 14.356608136254529 0
131 1 12 34.884749644697045 14.072350856411957 0
132 1 18 41.63808062519533 14.163828876851635 0
133 1 18 48.51913292480268 14.04127211056184 0
134 1 18 55.6206965807748 14.294045461882348 0
135 1 12 62.74757932823979 14.363929873475406 0
136 1 7 69.54176284008624 14.15632935583894 0
137 1 11 76.51388357969854 14.3943416939405 0
138 1 10 83.33369301151534 14.073603807455413 0
139 1 9 90.18964024486915 14.114719803347588 0
140 1 11 97.32582344358762 14.255355698617496 0
141 1 15 104.19143022063712 14.162818972149546 0
142 1 7 110.91256063581189 14.035957846286685 0
143 1 7 117.96139612279387 14.322084220787037 0
144 1 7 124.91262475093308 14.111875635592519 0
145 1 7 131.71428837845494 14.30719697484786 0
146 1 15 138.73286675531577 14.075282375651526 0
147 1 11 145.62950110936518 14.02440794461536 0
148 1 9 152.51962322359805 14.247128400088185 0
149 1 10 159.64526838923805 14.348598044688412 0
150 1 11 166.5585936715474 14.216805365375453 0
151 1 11 0.004932077052070794 18.388661166328827 0
152 1 10 7.290874355730723 18.150606307415202 0
153 1 9 14.153062529926123 18.149055226126524 0
154 1 11 20.977707891123394 18.343769887967373 0
155 1 15 28.091252763989623 18.09141880050835 0
156 1 16 34.91983600697061 18.157281718337178 0
157 1 12 41.65985989404896 18.238699909396384 0
158 1 12 48.572417391614565 18.29417012370737 0
159 1 12 55.576101892687944 18.370551246828807 0
160 1 16 62.398337203355375 18.03499851749549 0
161 1 15 69.316948734988 18.281521074825033 0
162 1 11 76.43201122313057 18.03933753625872 0
163 1 9 83.41161414442102 18.304785274487294 0
164 1 10 90.40671852244562 18.293938012418305 0
165 1 11 97.09342284763521 18.062625836971623 0
166 1 7 104.09597342167116 18.102249113344744 0
167 1 15 111.1231663832336 18.051619484802046 0
168 1 15 117.88336522442357 18.232572596514988 0
169 1 15 125.09567808315687 18.39624062722024 0
170 1 15 131.77410570979617 18.16671792666931 0
171 1 7 138.785410336703 18.34622043465273 0
172 1 11 145.7923545342238 18.038023088058637 0
173 1 10 152.61183391866385 18.31842889035283 0
174 1 9 159.60341746025122 18.380614054412362 0
175 1 11 166.32909405515255 18.277996048733655 0
176 1 4 -3.3841699993695373 20.116093634934465 0
177 1 11 3.6983778577517468 20.081499583813045 0
178 1 9 10.472119858705275 20.398639355028635 0
179 1 10 17.45663654248605 20.322745862484556 0
180 1 11 24.3565674460085 20.21140475120778 0
181 1 7 31.20950869014465 20.077453485015962 0
182 1 15 38.3883825646556 20.261658333935856 0
183 1 15 45.14591990761418 20.32357793485917 0
184 1 15 52.13611454370964 20.07090440820596 0
185 1 15 58.9443040446915 20.359484363474145 0
186 1 7 66.08622336861498 20.083955957620965 0
187 1 11 73.01889313814571 20.124896038990013 0
188 1 10 79.7440379878465 20.377645814226184 0
189 1 9 86.93600592546284 20.223679232100608 0
190 1 11 93.59913621761649 20.338752117830563 0
191 1 15 100.6057367630509 20.263722727583414 0
192 1 16 107.53208562565254 20.07649518550712 0
193 1 12 114.56010433802467 20.394223668385575 0
194 1 12 121.31432129576173 20.376824872906134 0
195 1 12 128.57146721199467 20.30500842740286 0
196 1 16 135.22096618349974 20.295505205402918 0
197 1 15 142.4053317844168 20.00751620705219 0
198 1 11 149.22732954115483 20.27673249807666 0
199 1 9 156.16148841482737 20.256605537674623 0
200 1 10 163.07181603115174 20.23291109374425 0
201 1 19 -3.3038478268703892 24.381415625925456 0
202 1 11 3.5465115859019885 24.063046180712604 0
203 1 10 10.438300825974997 24.344946910385147 0
204 1 9 17.66010809371401 24.399938410514675 0
205 1 11 24.59217198492884 24.057007373935956 0
206 1 15 31.386173299975646 24.295758398474767 0
207 1 7 38.350043278744984 24.05081833141323 0
208 1 7 45.325197408355166 24.134401995751528 0
209 1 7 52.10587032204949 24.24421936684759 0
210 1 7 58.92136737384409 24.137652373513557 0
211 1 15 66.02748979613588 24.205396506822044 0
212 1 11 72.98471096568694 24.33985895069354 0
213 1 9 79.95504470328369 24.290593677678075 0
214 1 10 86.74431644867299 24.335797548301215 0
215 1 11 93.72367499769382 24.32786763828613 0
216 1 7 100.67082186387867 24.286883730302698 0
217 1 12 107.66600499627309 24.237107596818603 0
218 1 18 114.61862285659824 24.14640511849542 0
219 1 18 121.2981633669015 24.365633295379755 0
220 1 18 128.21625506526024 24.16690591584121 0
221 1 12 135.39781187871995 24.286294926370683 0
222 1 7 142.36769879054316 24.148316616467866 0
223 1 11 149.16747243268316 24.182495913813714 0
224 1 10 155.89498194995525 24.00497125498075 0
225 1 9 162.92692994379962 24.346432587623973 0
226 1 15 0.38471097389910724 26.360552911220108 0
227 1 11 6.9701714269581805 26.06447596238709 0
228 1 9 14.187208941375525 26.286834114699033 0
229 1 10 20.89608678332249 26.37604260428176 0
230 1 11 27.7240094512377 26.20508193754682 0
231 1 15 34.67470965513027 26.208683969915796 0
232 1 15 41.64803497594148 26.264794507687256 0
233 1 15 48.88660357052871 26.23739534219607 0
234 1 15 55.5482704501999 26.048825598106284 0
235 1 15 62.646602530422584 26.237724423885 0
236 1 11 69.30624896198103 26.27997010633355 0
237 1 10 76.24687906810773 26.06668697103014 0
238 1 9 83.50424257626622 26.181539731347666 0
239 1 11 90.43614087231907 26.39070801461269 0
240 1 15 97.37141300299638 26.027378585471517 0
241 1 16 104.11981327802071 26.27407095773834 0
242 1 17 110.91464268832566 26.179889870966985 0
243 1 13 118.16079113987655 26.38933107712725 0
244 1 13 124.93145096098596 26.239816220103293 0
245 1 17 131.6380795270501 26.21967088701052 0
246 1 16 138.891600112432 26.341296425295038 0
247 1 15 145.5398904712696 26.321954992529097 0
248 1 11 152.4941846227197 26.097494948689494 0
249 1 9 159.60160434997252 26.05476162254769 0
250 1 10 166.4189698719281 26.020428312816975 0
251 1 7 0.12301034629554707 30.376233121102835 0
252 1 11 7.040260747220136 30.178177304824935 0
253 1 10 13.937807869614877 30.05770118699796 0
254 1 9 21.000876509971445 30.279600984313785 0
255 1 11 27.77535006681223 30.224460083193414 0
256 1 11 34.7527139002529 30.015775023939412 0
257 1 11 41.8033467915607 30.15431758220045 0
258 1 11 48.54775768907857 30.290865624500817 0
259 1 11 55.53245815775149 30.262058765240127 0
260 1 11 62.39168680141295 30.23716382903894 0
261 1 11 69.57389868322603 30.08639151483374 0
262 1 9 76.58697855167757 30.15398582300548 0
263 1 10 83.35167490465138 30.1146096853067 0
264 1 11 90.44625007260827 30.315619363947643 0
265 1 7 97.1833987330665 30.27354283162915 0
266 1 12 104.2128381863246 30.109489806991 0
267 1 13 111.24810237837953 30.340558186762575 0
268 1 14 117.88804074640363 30.110821398002248 0
269 1 14 125.09061024839045 30.1235636476654 0
270 1 13 131.85021693263622 30.048084023838033 0
271 1 12 138.82543345241874 30.213377217166162 0
272 1 7 145.59996787168745 30.13283011723453 0
273 1 11 152.5775222098659 30.12743518323183 0
274 1 10 159.5623009658017 30.06072008647934 0
275 1 9 166.61860030400229 30.1398080084792 0
276 1 5 -3.4395702973823985 32.06979550822386 0
277 1 15 3.752444536663984 32.05278440284459 0
278 1 11 10.77747062926404 32.131030688338825 0
279 1 9 17.46733661453995 32.02587230799363 0
280 1 10 24.357065325027726 32.08849325492612 0
281 1 11 31.44252467295581 32.02326191494868 0
282 1 11 38.365101495658124 32.178163690804695 0
283 1 11 45.20396410160113 32.31869880654633 0
284 1 11 52.00828678831707 32.398814907624285 0
285 1 11 59.12590178593563 32.30819484369933 0
286 1 11 65.86710588893861 32.06720882975676 0
287 1 10 73.08997191208631 32.09594649738353 0
288 1 9 79.82284185985779 32.030143900833416 0
289 1 11 86.82112378036327 32.11614655788163 0
290 1 15 93.71259005664248 32.21944368433625 0
291 1 16 100.55102433169886 32.33491211616418 0
292 1 17 107.72405604740501 32.28696675358761 0
293 1 14 114.32282074502598 32.071835233841746 0
294 1 14 121.51071692036811 32.31468431374696 0
295 1 14 128.18780002348407 32.303298489214924 0
296 1 17 135.37399879348723 32.16928118942762 0
297 1 16 142.2248688739765 32.09565655153182 0
298 1 15 149.13217544666685 32.19397936283864 0
299 1 11 156.0958507564338 32.05688051295489 0
300 1 9 163.13471151217286 32.24029206722655 0
301 1 3 -3.290036777095167 36.10030509272717 0
302 1 7 3.765203501183876 36.333267159477444 0
303 1 11 10.743568969471674 36.06823066622455 0
304 1 10 17.512836890450757 36.39315584503085 0
305 1 9 24.479060195815705 36.24681822415257 0
306 1 10 31.53286690586044 36.25075023817667 0
307 1 10 38.15093055549747 36.09098823351087 0
308 1 10 45.37123968455576 36.1234425372606 0
309 1 10 52.197802124410494 36.38385238302605 0
310 1 10 59.01639665969692 36.06435587554127 0
311 1 10 65.92345990103976 36.081940368891225 0
312 1 9 73.12560960638046 36.19108661060745 0
313 1 10 79.97535407790023 36.17588863770677 0
314 1 11 86.65063976249964 36.108188969436924 0
315 1 7 93.88941445846646 36.08028332396662 0
316 1 12 100.55054056506488 36.07094799513119 0
317 1 13 107.43661198331431 36.2211250911188 0
318 1 14 114.56930307199922 36.14846092189208 0
319 1 14 121.57852130445269 36.1691437341584 0
320 1 14 128.25513872554515 36.246670852784284 0
321 1 13 135.18164131787898 36.253845487813265 0
322 1 12 142.0522128232493 36.32397659326441 0
323 1 7 149.24491855923728 36.324232096012764 0
324 1 11 156.20809788516115 36.29928226128476 0
325 1 10 162.96638311337546 36.37635113123933 0
326 1 16 0.10477852481666289 38.076938957635974 0
327 1 15 7.318890655300645 38.302637103594705 0
328 1 11 14.000249150663775 38.13060932790988 0
329 1 9 20.871317378354636 38.32438381404207 0
330 1 3 27.82687195107957 38.37062351630522 0
331 1 3 34.73890022948163 38.19359889716206 0
332 1 3 41.60932443615749 38.01219329540979 0
333 1 3 48.709123878274035 38.02574597801887 0
334 1 3 55.586599092635126 38.116945617555416 0
335 1 3 62.557387146100304 38.12423614538623 0
336 1 3 69.42283409553265 38.03137395272065 0
337 1 9 76.55216497924171 38.21434511319355 0
338 1 11 83.49339136934653 38.19627014768583 0
339 1 15 90.45756276719491 38.18560135315175 0
340 1 16 97.13361210778181 38.015330781812 0
341 1 17 104.27382438363706 38.2057993513033 0
342 1 14 111.02151117743543 38.08002037039945 0
343 1 14 118.11971579783162 38.28161442384451 0
344 1 14 124.78753827989998 38.32707651710788 0
345 1 14 131.8105782884095 38.34837825964031 0
346 1 17 138.82656952767616 38.0673020959013 0
347 1 16 145.84490770590543 38.265597287071756 0
348 1 15 152.50876121959715 38.01236349828468 0
349 1 11 159.69271689393042 38.18608093764396 0
350 1 9 166.46112135331302 38.026258085175485 0
351 1 16 0.1245439597818999 42.11537164727664 0
352 1 15 7.29228304826214 42.111011943429155 0
353 1 11 14.006444143777731 42.2927498221121 0
354 1 9 20.883078077610822 42.12772512776949 0
355 1 3 28.0997854578705 42.01192941833792 0
356 1 3 34.969131767849525 42.29780625488008 0
357 1 3 41.61713056764435 42.013769602595076 0
358 1 3 48.74177217693771 42.37086019039834 0
359 1 3 55.465137388531566 42.14165017351892 0
360 1 3 62.62904424893472 42.24814991875247 0
361 1 3 69.5059632083056 42.13237693397202 0
362 1 9 76.60007052680096 42.20021436480999 0
363 1 11 83.47619516954576 42.1975789417861 0
364 1 15 90.3942297694672 42.29058661206637 0
365 1 16 97.03905275941959 42.32469584250002 0
366 1 17 104.24065753192536 42.18189714577542 0
367 1 14 111.23151925738416 42.19868142675371 0
368 1 14 117.976899720172 42.28870892561476 0
369 1 14 124.72999460515514 42.366840701924964 0
370 1 14 131.7515518185373 42.07652241048732 0
371 1 17 138.84360123574749 42.19104246760593 0
372 1 16 145.67123942914387 42.33219860667425 0
373 1 15 152.43250698391924 42.393227963940355 0
374 1 11 159.7380628963457 42.18670711612057 0
375 1 9 166.52372470486551 42.01672291949807 0
376 1 3 -3.351649794457086 44.25594550049759 0
377 1 7 3.596251069543997 44.31734211324092 0
378 1 11 10.588866450873397 44.3051432810062 0
379 1 10 17.45964216284255 44.007553671123695 0
380 1 9 24.434263523331893 44.30863318318117 0
381 1 10 31.271639607295125 44.23738085720544 0
382 1 10 38.18775783364044 44.293142158020856 0
383 1 10 45.093869573991206 44.27864420621817 0
384 1 10 52.20934541792871 44.089986060282804 0
385 1 10 59.156747566965905 44.34351865891662 0
386 1 10 65.93380824227204 44.34065047654172 0
387 1 9 72.86608889391718 44.219928007453596 0
388 1 10 79.78151087845283 44.06790494735861 0
389 1 11 86.73114055424394 44.13973875966382 0
390 1 7 93.65318630827579 44.10091978726223 0
391 1 12 100.53674709011433 44.01082218136375 0
392 1 13 107.51852191994524 44.12730502511581 0
393 1 14 114.45404451117118 44.248098589015925 0
394 1 14 121.4411319347792 44.21043611277169 0
395 1 14 128.56266201555655 44.11102283936667 0
396 1 13 135.39563870798668 44.306755005047116 0
397 1 12 142.14771934009428 44.35549025163663 0
398 1 7 149.12957683999863 44.14401970039876 0
399 1 11 156.10562265796887 44.16312395347532 0
400 1 10 163.12715698371514 44.033172178260756 0
401 1 5 -3.229597147045869 48.10829371354987 0
402 1 15 3.6411359744648295 48.03032321540032 0
403 1 11 10.573189977294476 48.3198810132257 0
404 1 9 17.454997650783696 48.19819271529371 0
405 1 10 24.364575520642724 48.329865876022936 0
406 1 11 31.549360764064833 48.174942114781174 0
407 1 11 38.289559589614264 48.17534167398831 0
408 1 11 45.4200345357273 48.175253408518046 0
409 1 11 52.282587641617944 48.295199466359264 0
410 1 11 59.13107371953934 48.20115578778636 0
411 1 11 66.14897043362859 48.15413515153662 0
412 1 10 73.01189057560794 48.24197424548349 0
413 1 9 79.75162101268394 48.20421952390148 0
414 1 11 86.93536320529086 48.00254413538036 0
415 1 15 93.80716598204903 48.267521716377686 0
416 1 16 100.72268799090627 48.38784132085631 0
417 1 17 107.41735521376172 48.302123119144355 0
418 1 14 114.40368810519114 48.363636688665125 0
419 1 14 121.37140657158912 48.32244192871664 0
420 1 14 128.5303529894486 48.37673687424842 0
421 1 17 135.43823002436662 48.02297934388847 0
422 1 16 142.3661108363122 48.02591427186424 0
423 1 15 149.07750969530773 48.283420194003675 0
424 1 11 155.9513072271735 48.32231183209715 0
425 1 9 163.03350677670997 48.20169081915852 0
426 1 7 0.35982715692482176 50.26856147522414 0
427 1 11 7.196024138970214 50.3871384149597 0
428 1 10 14.134887862511162 50.26274080954134 0
429 1 9 20.841815927311075 50.31790242465025 0
430 1 11 27.76833415746705 50.008275428068195 0
431 1 11 34.75055291744805 50.16443478649291 0
432 1 11 41.61433634748251 50.08417502814808 0
433 1 11 48.825938365793 50.395105081305495 0
434 1 11 55.53761165492866 50.080805891152224 0
435 1 11 62.74697035938544 50.049089926664365 0
436 1 11 69.2894896752557 50.196740182631274 0
437 1 9 76.60516696892996 50.08833729989288 0
438 1 10 83.41386237188674 50.00330377095644 0
439 1 11 90.31477288942659 50.08347728073203 0
440 1 7 97.20703984194905 50.17619127346893 0
441 1 12 103.9625496477719 50.343053097026775 0
442 1 13 110.9014277331442 50.246319612945776 0
443 1 14 117.94178774860173 50.099722747847856 0
444 1 14 124.84732916223706 50.02986973610198 0
445 1 13 131.80409442626248 50.33438690661306 0
446 1 12 138.8236175836738 50.25427266280274 0
447 1 7 145.7446856009881 50.04984815873316 0
448 1 11 152.45857748174745 50.08589700675743 0
449 1 10 159.72775353109404 50.314824293571554 0
450 1 9 166.5566514202262 50.11564677797491 0
451 1 15 0.22201843330763002 54.33676355347427 0
452 1 11 7.3186069238091305 54.041620116665875 0
453 1 9 13.929667883022434 54.360708497333874 0
454 1 10 20.99628941244669 54.1314642387278 0
455 1 11 27.76447970959571 54.10807040026412 0
456 1 15 34.73769928127785 54.08787385257228 0
457 1 15 41.712659056197296 54.112852351293824 0
458 1 15 48.69774861595398 54.27225095848632 0
459 1 15 55.733675848705566 54.297754347510185 0
460 1 15 62.45297702655417 54.17278250336399 0
461 1 11 69.32402193555934 54.37230749004341 0
462 1 10 76.21414068148647 54.166668494360366 0
463 1 9 83.2870385137319 54.06619549413089 0
464 1 11 90.14146557231159 54.08174897185354 0
465 1 15 97.37311649924642 54.10479907494273 0
466 1 16 104.12133604103656 54.04896118875447 0
467 1 17 111.05454101836966 54.21031660824686 0
468 1 13 118.1212061395144 54.21679638586548 0
469 1 13 124.96495586198465 54.366076529992796 0
470 1 17 131.79749577875427 54.386182257897865 0
471 1 16 138.71431525682954 54.11861402174712 0
472 1 15 145.77061403515847 54.34676940947908 0
473 1 11 152.53261339523655 54.050419885766864 0
474 1 9 159.35401800061416 54.172796040460476 0
475 1 10 166.48252616787545 54.00063756043577 0
476 1 19 -3.2464352173844544 56.02920484856517 0
477 1 11 3.5266802545198437 56.24297805783894 0
478 1 10 10.508858558190363 56.346194159475985 0
479 1 9 17.67222940999906 56.215450988085024 0
480 1 11 24.38695048010062 56.16306679523116 0
481 1 15 31.47490872119402 56.369860687600436 0
482 1 7 38.17877975555999 56.22841487044777 0
483 1 7 45.052849681810365 56.25832961514276 0
484 1 7 52.32434391405958 56.0244181940178 0
485 1 7 59.19394966738633 56.14660233318865 0
486 1 15 65.89081976429664 56.3264274779636 0
487 1 11 72.96649764590647 56.29152931133316 0
488 1 9 80.02452789782261 56.17908805760637 0
489 1 10 86.84642065398121 56.13328899393506 0
490 1 11 93.53907020892258 56.01298834725235 0
491 1 7 100.66971651593649 56.07726403076653 0
492 1 12 107.40285926830136 56.25249544372006 0
493 1 18 114.64570830866388 56.15539587927035 0
494 1 18 121.3424553376786 56.087351654616306 0
495 1 18 128.5399948860451 56.28816569998185 0
496 1 12 135.3169361773183 56.26700017399033 0
497 1 7 142.2700353970208 56.01316454837999 0
498 1 11 149.07467319309828 56.255995913497706 0
499 1 10 156.26591558509534 56.31133111157496 0
500 1 9 163.08707100476218 56.281007015230855 0
501 1 4 -3.3229071706067455 60.21647985445399 0
502 1 11 3.7044395082237465 60.20257882139821 0
503 1 9 10.774042490350547 60.39815669758966 0
504 1 10 17.67820613372202 60.208555236039636 0
505 1 11 24.40133207624409 60.36568374816185 0
506 1 7 31.463136394930547 60.12881976070317 0
507 1 15 38.24474812164617 60.17240673862653 0
508 1 15 45.07830333952062 60.36615669358944 0
509 1 15 52.02382732775758 60.107710009971555 0
510 1 15 58.96790621212192 60.0239669491864 0
511 1 7 65.84335028581059 60.35394701396251 0
512 1 11 72.89986072669619 60.357762908878605 0
513 1 10 79.75980780311733 60.224829887327424 0
514 1 9 86.69546891632187 60.16403217472676 0
515 1 11 93.6029549739183 60.01805721054732 0
516 1 15 100.68190294041196 60.26687693360932 0
517 1 16 107.61644231550335 60.33521780720566 0
518 1 12 114.44725244191659 60.08777882916961 0
519 1 12 121.36923915184546 60.19714289658274 0
520 1 12 128.2687585848556 60.270933363087366 0
521 1 16 135.1637215103418 60.37988633592387 0
522 1 15 142.12515498383377 60.30515870863604 0
523 1 11 149.24156154337348 60.02316762398573 0
524 1 9 156.06434679967592 60.07858438169161 0
525 1 10 162.92545521677516 60.263850029838785 0
526 1 11 0.2244931671146275 62.313708509322744 0
527 1 10 7.265327441429138 62.19754999225104 0
528 1 9 14.004434445256882 62.21759630171909 0
529 1 11 21.096790778654643 62.053500935802866 0
530 1 15 27.742573494285086 62.054711872154144 0
531 1 16 34.85271312666877 62.359528605884094 0
532 1 12 41.933319721611895 62.11567794513771 0
533 1 12 48.53975905965118 62.08179436532023 0
534 1 12 55.700779566158 62.23048050229999 0
535 1 16 62.57821400290512 62.305185194913996 0
536 1 15 69.61322530152209 62.047677134452805 0
537 1 11 76.3790984409423 62.37467981946203 0
538 1 9 83.40186027729622 62.24951647269812 0
539 1 10 90.11978398410226 62.03330232925604 0
540 1 11 97.15125376856348 62.06154622466851 0
541 1 7 104.24447035527082 62.15456378929799 0
542 1 15 110.86805343804919 62.12691913192768 0
543 1 15 117.80554925363072 62.01624838879261 0
544 1 15 124.81788871620786 62.21009178738387 0
545 1 15 131.78161227579378 62.007928389552816 0
546 1 7 138.67400910504372 62.37708376700787 0
547 1 11 145.7420094383215 62.3398742680325 0
548 1 10 152.45610743933855 62.30614657153095 0
549 1 9 159.57995097931453 62.25334874133599 0
550 1 11 166.42757661751742 62.12960310031216 0
551 1 11 0.23634941928197206 66.23067113099921 0
552 1 9 6.980592627171196 66.01451341317329 0
553 1 10 13.956045886489198 66.241779355654 0
554 1 11 20.993680626761257 66.04381878590404 0
555 1 7 27.983544487275765 66.03195583995969 0