
14309 atoms
14896 bonds
16659 angles
31 atom types
8 bond types
26 angle types

-5.680607966083864 171.52447279080386 xlo xhi
-2.0 148.0 ylo yhi
-4 4 zlo zhi


Masses

1 0.0002320885476392282
2 0.0005570125143341477
3 0.00032492396669491945
4 0.0005338036595702248
5 0.0006498479333898389
6 0.00046417709527845643
7 0.0006962656429176845
8 0.00023208854763922821
9 0.0004641770952784564
10 0.0007891010619733758
11 0.0006034302238619934
12 0.0009747719000847584
13 0.0007426833524455303
14 0.0009283541905569129
15 0.0003713416762227651
16 0.0005105948048063021
17 0.0008355187715012215
18 0.0010211896096126041
19 0.0007426833524455302
20 0.00037134167622276514
21 0.0006730567881537617
22 0.00041775938575061073
23 0.00027850625716707386
24 0.0004641770952784564
25 0.0006498479333898389
26 0.00027850625716707386
27 0.0003713416762227651
28 0.0006034302238619934
29 0.0007426833524455302
30 0.0005570125143341477
31 0.00018567083811138254

Pair Coeffs

1 0.40509979849834776 0.44544935907016964 0.5
2 0.40509979849834776 0.44544935907016964 0.5
3 0.40509979849834776 0.44544935907016964 0.5
4 0.40509979849834776 0.44544935907016964 0.5
5 0.40509979849834776 0.44544935907016964 0.5
6 0.40509979849834776 0.44544935907016964 0.5
7 0.40509979849834776 0.44544935907016964 0.5
8 0.40509979849834776 0.44544935907016964 0.5
9 0.40509979849834776 0.44544935907016964 0.5
10 0.40509979849834776 0.44544935907016964 0.5
11 0.40509979849834776 0.44544935907016964 0.5
12 0.40509979849834776 0.44544935907016964 0.5
13 0.40509979849834776 0.44544935907016964 0.5
14 0.40509979849834776 0.44544935907016964 0.5
15 0.40509979849834776 0.44544935907016964 0.5
16 0.40509979849834776 0.44544935907016964 0.5
17 0.40509979849834776 0.44544935907016964 0.5
18 0.40509979849834776 0.44544935907016964 0.5
19 0.40509979849834776 0.44544935907016964 0.5
20 0.40509979849834776 0.44544935907016964 0.5
21 0.40509979849834776 0.44544935907016964 0.5
22 0.40509979849834776 0.44544935907016964 0.5
23 0.40509979849834776 0.44544935907016964 0.5
24 0.40509979849834776 0.44544935907016964 0.5
25 0.40509979849834776 0.44544935907016964 0.5
26 0.40509979849834776 0.44544935907016964 0.5
27 0.40509979849834776 0.44544935907016964 0.5
28 0.40509979849834776 0.44544935907016964 0.5
29 0.40509979849834776 0.44544935907016964 0.5
30 0.40509979849834776 0.44544935907016964 0.5
31 0.40509979849834776 0.44544935907016964 0.5

Bond Coeffs

1 92.83541905569128 0.5
2 129.96958667796778 0.5
3 55.70125143341477 0.5
4 74.26833524455301 0.5
5 120.68604477239866 0.5
6 148.53667048910603 0.5
7 111.40250286682954 0.5
8 37.13416762227651 0.5

Angle Coeffs

1 6.667451425179775 180
2 18.295486710693307 180
3 1.4401695078388315 180
4 3.4137351296920446 180
5 14.64839078111997 180
6 27.309881037536357 180
7 11.521356062710652 180
8 0.4267168912115056 180
9 9.773230080498555 120
10 2.025732934102971 120
11 9.163835333825437 120
12 16.20586347282378 120
13 5.266905628667726 120
14 21.91178759269 120
15 0.6583632035834658 120
16 6.667451425179775 120
17 2.3686998484191317 120
18 4.515522658322809 120
19 3.4137351296920464 120
20 19.068745793569807 120
21 14.64839078111997 120
22 11.521356062710652 120
23 14.13890922901522 120
24 18.295486710693307 120
25 0.7586078065982323 120
26 1.4401695078388315 120

Atoms

1 1 1 -3.2926565677647206 0.3212649576108402 0
2 1 2 3.468743108158897 0.031159868309597674 0
3 1 3 10.550379900133056 0.06933662863211386 0
4 1 4 17.334075150972723 0.1884503842921694 0
5 1 5 24.281103572072347 0.27706678594285633 0
6 1 6 31.29226416937235 0.1793625590140412 0
7 1 7 38.163050746465466 0.34083141487594615 0
8 1 6 45.25204538985965 0.11231931282495672 0
9 1 8 52.02228363385178 0.2231821040172413 0
10 1 8 59.210398272909345 0.24722200438848146 0
11 1 6 66.2144953070066 0.2430483303662644 0
12 1 7 72.84671774992995 0.10941308930302306 0
13 1 6 79.89557861771875 0.028945523963328945 0
14 1 5 86.77934412629742 0.36883008999648664 0
15 1 4 93.6453923504289 0.043470216080002504 0
16 1 3 100.66217757443805 0.08719255071903453 0
17 1 2 107.54019781214897 0.34838943293519353 0
18 1 9 114.67345716343222 0.30757362240372116 0
19 1 9 121.52856015308168 0.28461824873611224 0
20 1 9 128.31417522344418 0.12091971035772131 0
21 1 9 135.1097254739238 0.05852041292315056 0
22 1 9 142.03237620379383 0.07678370535274799 0
23 1 9 149.2667783770802 0.19400710700584672 0
24 1 9 156.2513883923399 0.24690656279474057 0
25 1 9 162.9694602199829 0.058101237836620495 0
26 1 10 0.2379398637677868 2.014709322380787 0
27 1 11 7.123175182546631 2.0387417105198824 0
28 1 11 13.920753352681439 2.010442786032114 0
29 1 12 20.79165826055838 2.119180495923087 0
30 1 13 28.099846926239362 2.004370302623356 0
31 1 14 34.91527188315178 2.0875856496079788 0
32 1 14 41.91853349737537 2.220383216827742 0
33 1 6 48.58048394305984 2.1473360565304636 0
34 1 15 55.444505427226005 2.1914018775749486 0
35 1 6 62.733831886437486 2.2789475609838896 0
36 1 14 69.66509168149534 2.2661803450086224 0
37 1 14 76.48598177615101 2.2641751301818225 0
38 1 13 83.45756852451962 2.137863506197427 0
39 1 12 90.25502795729756 2.0015023379668286 0
40 1 11 97.02180634898977 2.02138427257854 0
41 1 11 103.98453961868786 2.344540007460596 0
42 1 10 111.16284305487993 2.33399462909952 0
43 1 11 117.97159985934923 2.2815391818289994 0
44 1 11 124.85076929330677 2.042953701742859 0
45 1 11 131.79426373454305 2.070298192664511 0
46 1 11 138.65086724204752 2.397310667520229 0
47 1 11 145.65141681373012 2.089634441798178 0
48 1 11 152.6696749667924 2.1001199377860402 0
49 1 11 159.399931890846 2.1544338452775325 0
50 1 10 166.34814601418628 2.3517971158857014 0
51 1 11 0.010826298781051548 6.104888880740451 0
52 1 10 7.169537817890779 6.229835644649597 0
53 1 16 14.229711505999585 6.326527104875606 0
54 1 17 20.8281129829464 6.31456823391659 0
55 1 14 28.10370735071654 6.255452158138809 0
56 1 13 34.65740884821523 6.141875785951661 0
57 1 18 41.947134822185646 6.04789861158997 0
58 1 5 48.597135253968396 6.0927718614174005 0
59 1 9 55.664426705678615 6.062661189758684 0
60 1 5 62.6945251875606 6.00432981388743 0
61 1 18 69.39763901205201 6.326123222409111 0
62 1 13 76.32743700374924 6.373613259979082 0
63 1 14 83.48030743961552 6.028502379284304 0
64 1 17 90.26866199835798 6.07471780714605 0
65 1 16 97.16236727211685 6.2648687525123075 0
66 1 10 104.0285746555527 6.309927803254345 0
67 1 11 110.86553517458094 6.0018160518179675 0
68 1 16 117.79315428946848 6.199532139371661 0
69 1 16 124.80944505075186 6.053675650127749 0
70 1 16 131.7459998391408 6.041282575549011 0
71 1 16 138.78084438672602 6.141771323978639 0
72 1 16 145.85989744820057 6.092862189579801 0
73 1 16 152.47253232521686 6.378959017775684 0
74 1 16 159.6958692306634 6.384751835408433 0
75 1 11 166.64797918269747 6.159011911691388 0
76 1 3 -3.4211349327912273 8.393023529611295 0
77 1 10 3.7053673225252632 8.373028598854216 0
78 1 11 10.444141487427178 8.00005634731076 0
79 1 11 17.379999914671316 8.305085183044788 0
80 1 12 24.3793403577972 8.20601383117689 0
81 1 13 31.38892115428802 8.290957973624389 0
82 1 14 38.250728576993026 8.343609503013594 0
83 1 14 45.09071971529728 8.18497478106941 0
84 1 5 52.04851863572684 8.24443609037964 0
85 1 5 59.111130357841944 8.248280209824646 0
86 1 14 65.96019234413544 8.351937826843042 0
87 1 14 72.89935174106289 8.217841351055602 0
88 1 13 79.76970739193337 8.31681019398655 0
89 1 12 86.9959717489036 8.30829319172883 0
90 1 11 93.66406788546239 8.169928782199035 0
91 1 11 100.70230562450583 8.374646015479936 0
92 1 10 107.78288737251746 8.37192968270604 0
93 1 16 114.34560776875198 8.121835056602134 0
94 1 11 121.3350324477411 8.238678634321682 0
95 1 11 128.31392240818425 8.07839745411143 0
96 1 11 135.1660108460009 8.289867555399267 0
97 1 11 142.0682796832188 8.266586951046676 0
98 1 11 148.9632127139631 8.057349715457166 0
99 1 11 156.25807307910418 8.349584547355889 0
100 1 16 163.00316617229478 8.33483671046343 0
101 1 15 -3.104604874889095 12.12250119577645 0
102 1 11 3.6455260933103544 12.17187506273917 0
103 1 10 10.783071876083417 12.38111393012171 0
104 1 16 17.329271758011483 12.331232321718863 0
105 1 17 24.489082809016868 12.378185216813607 0
106 1 14 31.32937955757911 12.017577809227529 0
107 1 13 38.49384659172713 12.122082354446214 0
108 1 18 45.34048738009744 12.262273761978848 0
109 1 14 51.97296852544442 12.07930703102785 0
110 1 14 59.03301352484162 12.116270573630983 0
111 1 18 66.08980560043017 12.229921848779378 0
112 1 13 72.74837929401913 12.149749880429352 0
113 1 14 79.96727564782405 12.216262687007355 0
114 1 17 86.94670467418005 12.30988742847994 0
115 1 16 93.73774560660789 12.133031313037257 0
116 1 10 100.61181764243709 12.353747838199055 0
117 1 11 107.72539454722028 12.26567736572567 0
118 1 11 114.50603078392463 12.25417501084659 0
119 1 17 121.6258812805535 12.151935702199351 0
120 1 17 128.53665546545002 12.321892299381531 0
121 1 17 135.14167730284217 12.171237585444084 0
122 1 17 142.29717104748127 12.03010187011022 0
123 1 17 149.02154228369727 12.321554873298298 0
124 1 17 156.01749475509786 12.067535524311127 0
125 1 11 162.93106943184617 12.045690351918852 0
126 1 16 0.2647370099342406 14.229668306864365 0
127 1 10 7.053093544575082 14.318740911977834 0
128 1 11 13.990000892892551 14.173407985539185 0
129 1 11 20.78893166292483 14.158580644358864 0
130 1 12 27.958012309268042 14.082200595812566 0
131 1 13 35.02577637624434 14.390001430929424 0
132 1 14 41.81984861310596 14.205390857326076 0
133 1 18 48.59923677037433 14.011857826754456 0
134 1 18 55.79943068308585 14.342959313272104 0
135 1 18 62.5651569875557 14.087592611940822 0
136 1 14 69.51608594601895 14.071140026410973 0
137 1 13 76.46294062012464 14.195541435495807 0
138 1 12 83.15312951131648 14.0319795396233 0
139 1 11 90.44211914448321 14.184263197357758 0
140 1 11 97.06420756027102 14.33990571493316 0
141 1 10 103.96846038441302 14.366449837424438 0
142 1 16 110.95737456741821 14.377840025478232 0
143 1 17 118.05344103141476 14.133974047341837 0
144 1 12 124.76302576590679 14.069371754474455 0
145 1 12 131.6804537785299 14.0446263849144 0
146 1 12 138.81493302530822 14.391063511305362 0
147 1 12 145.5394632166054 14.32467448834516 0
148 1 12 152.5440738787892 14.0817806836113 0
149 1 17 159.46913863363548 14.032341581026312 0
150 1 16 166.32927614763182 14.3327186884227 0
151 1 11 0.027849191670521158 18.033661836690467 0
152 1 11 7.139020128019391 18.36121836833214 0
153 1 10 13.886610109915177 18.27866092475857 0
154 1 16 21.06332730325223 18.368148453059597 0
155 1 17 27.953977309399612 18.015523281008182 0
156 1 14 34.70361177659406 18.057216195057812 0
157 1 13 41.614154421119686 18.303079152314435 0
158 1 14 48.593317838357706 18.322359539025012 0
159 1 14 55.78435401703403 18.03970351484012 0
160 1 14 62.359471294404266 18.10067715215674 0
161 1 13 69.55135392460267 18.056731780594564 0
162 1 14 76.51393780380616 18.35284949297572 0
163 1 17 83.43695145641632 18.185031510009118 0
164 1 16 90.12081343948648 18.383847993750567 0
165 1 10 97.31544321335141 18.035024493089995 0
166 1 11 104.21899173698316 18.16410839872779 0
167 1 11 110.974748116733 18.111943500064044 0
168 1 12 118.09018273806787 18.081429711489886 0
169 1 14 124.73010712841754 18.090288417239755 0
170 1 14 131.86032228930966 18.309663114599946 0
171 1 14 138.6804138088049 18.362593370703753 0
172 1 14 145.53132446775268 18.274530090645072 0
173 1 14 152.5227422476465 18.29949639459011 0
174 1 12 159.55883572549965 18.380587528333965 0
175 1 11 166.30164415498527 18.118333307134694 0
176 1 4 -3.282763607910719 20.27293422252342 0
177 1 16 3.7969041572218765 20.342946432179726 0
178 1 10 10.40293433143089 20.30189785118885 0
179 1 11 17.507057018579832 20.321002138108298 0
180 1 11 24.57495662626238 20.092423395830988 0
181 1 12 31.267315752863254 20.35936515534804 0
182 1 13 38.3218845393671 20.13415044748805 0
183 1 19 45.18658211133964 20.257249167093345 0
184 1 19 52.07487355764616 20.22936325100755 0
185 1 19 59.100740707374214 20.00981193448755 0
186 1 19 66.2159043971747 20.165010317671 0
187 1 13 72.94669146262973 20.001891647370996 0
188 1 12 79.95752008069081 20.049511886055672 0
189 1 11 86.73432990701185 20.234599844812713 0
190 1 11 93.8928784329945 20.25953596588463 0
191 1 10 100.63486166204628 20.262275995214456 0
192 1 16 107.43403944596609 20.218922912033246 0
193 1 17 114.38773535285455 20.335740268491143 0
194 1 14 121.42676280649279 20.236102157656834 0
195 1 19 128.4003868529475 20.194457485783076 0
196 1 19 135.20457133049007 20.068656845253987 0
197 1 19 142.180566413512 20.084300270930044 0
198 1 19 148.99076803933772 20.365087264162007 0
199 1 14 156.27907803999352 20.283399189387058 0
200 1 17 162.8336452470985 20.114196690039524 0
201 1 11 -3.415068193413817 24.240831916155923 0
202 1 11 3.579726544473101 24.31046438007379 0
203 1 11 10.578163583201025 24.34635101478498 0
204 1 10 17.682191181344464 24.37208762413428 0
205 1 16 24.53968171662282 24.322743167319068 0
206 1 17 31.192628067013906 24.05634709716759 0
207 1 14 38.27305062418235 24.282703910007523 0
208 1 19 45.189820824737666 24.253111260209845 0
209 1 19 52.08502893809673 24.04533699945878 0
210 1 19 59.28334274423808 24.152462485880637 0
211 1 19 65.9830028539953 24.32215350774628 0
212 1 14 73.12610940832413 24.081904697329755 0
213 1 17 79.92487584126464 24.060150353311986 0
214 1 16 86.72168081865627 24.35404576274547 0
215 1 10 93.79188367643879 24.204837448869608 0
216 1 11 100.77002942868108 24.271821180025 0
217 1 11 107.64613374152735 24.32808288404192 0
218 1 12 114.5627902100551 24.153827458888202 0
219 1 13 121.2526263198032 24.14496803424938 0
220 1 19 128.20771436415222 24.159755055422913 0
221 1 19 135.24255577312277 24.320187034592355 0
222 1 19 142.20724153608117 24.1822824815129 0
223 1 19 149.32424573347274 24.0260252208728 0
224 1 13 156.13061460550017 24.304703390368267 0
225 1 12 162.9360522136174 24.28471324923079 0
226 1 17 0.32386199658209747 26.195838273075406 0
227 1 16 7.217448879768072 26.32379414332125 0
228 1 10 13.927449891583743 26.00261387080409 0
229 1 11 21.164128697241093 26.06228029278561 0
230 1 11 27.843883577904972 26.125538580714753 0
231 1 12 34.99579962384795 26.084695653674782 0
232 1 14 41.6377193662905 26.266906277039947 0
233 1 14 48.81811016747426 26.378579380858177 0
234 1 14 55.62669151547113 26.020700378802374 0
235 1 14 62.53200635503204 26.230761773404225 0
236 1 14 69.54715618078669 26.193416401119833 0
237 1 12 76.28748869025594 26.138175047669193 0
238 1 11 83.33834085290596 26.300724206229813 0
239 1 11 90.15271865643324 26.105667827082343 0
240 1 10 97.3929824273293 26.274436478013634 0
241 1 16 104.16061299514435 26.378433275688877 0
242 1 17 110.87545103758683 26.37242771050037 0
243 1 14 117.98478981377639 26.287871311336108 0
244 1 13 124.72289868542867 26.336471194210787 0
245 1 14 131.9167040108704 26.142556877101622 0
246 1 14 138.81292964662484 26.36641360192162 0
247 1 14 145.65643253689822 26.103143257093684 0
248 1 13 152.73903498678044 26.207820953192616 0
249 1 14 159.37808964608774 26.308670739913346 0
250 1 17 166.35815705671402 26.343973345053634 0
251 1 12 0.2966587125615691 30.322268247745196 0
252 1 11 7.056290048418193 30.24726521646164 0
253 1 11 14.059294373572014 30.22454092855321 0
254 1 10 21.032841585689532 30.280278185966335 0
255 1 16 27.810139403530407 30.313249249074328 0
256 1 17 35.026827533411335 30.250737203824674 0
257 1 12 41.753393220774505 30.247929798729665 0
258 1 12 48.67538285061028 30.073150364847972 0
259 1 12 55.76964287990749 30.096687525497803 0
260 1 12 62.64670758023193 30.32262910159582 0
261 1 12 69.43457067971501 30.310255354755085 0
262 1 17 76.55840567624296 30.038878758032002 0
263 1 16 83.53321683186843 30.222795422863634 0
264 1 10 90.22616709165786 30.11018933966932 0
265 1 11 97.19593947416952 30.02583879229114 0
266 1 11 104.13458823330767 30.206685288181006 0
267 1 12 110.96341217034664 30.07496045868355 0
268 1 13 117.9731949400732 30.278171967263294 0
269 1 14 125.05687488650811 30.085684587607084 0
270 1 18 131.7339837712492 30.277400659349762 0
271 1 18 138.77850319326393 30.348400875499177 0
272 1 18 145.5403154864836 30.340225895334417 0
273 1 14 152.73738387928157 30.113638177553984 0
274 1 13 159.38942546780552 30.356699798046222 0
275 1 12 166.30668530063676 30.377655348269407 0
276 1 5 -3.4547196910473086 32.20902275972859 0
277 1 17 3.8279075294822347 32.0503944001399 0
278 1 16 10.620112088532974 32.26486536934853 0
279 1 10 17.40121394628543 32.00077600775427 0
280 1 11 24.49155590083441 32.09616208025402 0
281 1 11 31.563617742721945 32.196677741744494 0
282 1 17 38.45834332292181 32.03714006348949 0
283 1 17 45.42288282230452 32.02884772531412 0
284 1 17 52.17762813666171 32.00587284461579 0
285 1 17 59.18688022807921 32.05300212361025 0
286 1 17 65.98209319912594 32.09974310959113 0
287 1 17 73.01542267779392 32.3071177729142 0
288 1 11 79.6847854475124 32.38058581094456 0
289 1 11 86.7508610601688 32.030214806538616 0
290 1 10 93.88914634546174 32.245157260919825 0
291 1 16 100.71636318021714 32.08821365207172 0
292 1 17 107.73765106849781 32.2245582859796 0
293 1 14 114.60131003212994 32.187086338824884 0
294 1 13 121.6234676415508 32.119636157171435 0
295 1 18 128.49730989053162 32.17312565042573 0
296 1 14 135.42110018074408 32.22836889622101 0
297 1 14 142.1291584499125 32.04907528806488 0
298 1 18 149.08194715168938 32.30358945870069 0
299 1 13 156.1938378171051 32.26976794366728 0
300 1 14 163.04598919361078 32.029465137044824 0
301 1 2 -3.4536216556341572 36.24910314873945 0
302 1 12 3.8441408632464418 36.03660211198588 0
303 1 11 10.577342126958108 36.24981435473716 0
304 1 11 17.40839343438153 36.28419308660289 0
305 1 10 24.449145658249147 36.09043476676271 0
306 1 16 31.447523430260635 36.07562371988796 0
307 1 11 38.335289156092166 36.171270305072724 0
308 1 11 45.039705757364786 36.35639002243793 0
309 1 11 52.19187176889544 36.00058758360914 0
310 1 11 59.26992559485059 36.2334687208656 0
311 1 11 65.83453232915696 36.314722076366614 0
312 1 11 73.07026641040682 36.19877377392383 0
313 1 16 79.68791126651413 36.13380034073826 0
314 1 10 86.69259979139093 36.324764066920835 0
315 1 11 93.58058552147534 36.15875241385364 0
316 1 11 100.70567363897837 36.33163014765463 0
317 1 12 107.46581534611549 36.11146187251946 0
318 1 13 114.63913311829968 36.01322211815847 0
319 1 14 121.39947438545185 36.29226478728198 0
320 1 14 128.32221798903873 36.395899626495414 0
321 1 5 135.39491619872123 36.05370523988453 0
322 1 5 142.2600823167666 36.01261712490257 0
323 1 14 149.31260862089343 36.01071423954947 0
324 1 14 156.12149631296126 36.262846172538744 0
325 1 13 162.88031567860506 36.10610299426432 0
326 1 14 0.25008785527839317 38.08910260478507 0
327 1 17 6.934815134761118 38.16247886081179 0
328 1 16 13.950304050646462 38.322537318127466 0
329 1 10 21.134784975824775 38.1525278548574 0
330 1 11 27.89719469661274 38.12965297431697 0
331 1 16 34.74910237298944 38.05264865248254 0
332 1 16 41.643500224527486 38.09192499077562 0
333 1 16 48.547696821812266 38.27447646556942 0
334 1 16 55.446321417302954 38.264252501907905 0
335 1 16 62.59263032545143 38.097834669240655 0
336 1 16 69.44117731705688 38.05831414631628 0
337 1 16 76.24742506441189 38.16031095200388 0
338 1 11 83.18781054135343 38.15522181135573 0
339 1 10 90.15722861495381 38.01478189426166 0
340 1 16 97.27621260642512 38.04983781791196 0
341 1 17 104.19033819013215 38.0717139753836 0
342 1 14 111.19396402737131 38.35328477601921 0
343 1 13 117.78024149782962 38.23212531037608 0
344 1 18 124.7177037840593 38.39129268825204 0
345 1 5 131.99251057033663 38.33384618876081 0
346 1 9 138.68608235752814 38.009696707441954 0
347 1 5 145.574625569141 38.29458096124145 0
348 1 18 152.65105008162092 38.263382206588375 0
349 1 13 159.61561387316507 38.05051874422184 0
350 1 14 166.38639558138973 38.16231051796128 0
351 1 13 0.07675411115246776 42.225263538523045 0
352 1 12 7.153420990979548 42.1043137772627 0
353 1 11 14.178454733848419 42.09139657821949 0
354 1 11 20.89105522548215 42.08813423089778 0
355 1 10 27.762121031610782 42.20802173881017 0
356 1 11 34.785080855607184 42.142583125760744 0
357 1 11 41.91002915465465 42.396953159496135 0
358 1 11 48.70730865331959 42.130390717867826 0
359 1 11 55.530213793133605 42.3168670030585 0
360 1 11 62.740369488250145 42.0363401587937 0
361 1 11 69.65913967719804 42.14511408303298 0
362 1 11 76.58139286882358 42.367823622432475 0
363 1 10 83.19584623495537 42.19447682027957 0
364 1 11 90.2592682228045 42.14023630373195 0
365 1 11 97.22660548139659 42.253715113959906 0
366 1 12 104.17385137502298 42.10029559563638 0
367 1 13 111.24475666463583 42.11695238448528 0
368 1 14 117.915220741298 42.10909860953471 0
369 1 14 125.10030747044215 42.35555126295307 0
370 1 6 131.95972304123262 42.141704396207864 0
371 1 15 138.7797943860816 42.32758177912119 0
372 1 6 145.78670686463107 42.17512048554344 0
373 1 14 152.72316295481522 42.39073673835174 0
374 1 14 159.59799223138634 42.187784706464576 0
375 1 13 166.3710759427376 42.08835207884631 0
376 1 6 -3.202540522581407 44.065109181302454 0
377 1 14 3.751068981030193 44.30771606397667 0
378 1 17 10.413087446777883 44.003088193405596 0
379 1 16 17.643577872552903 44.10415968376201 0
380 1 10 24.35276638491153 44.338567903792715 0
381 1 10 31.477917154502283 44.09265726068379 0
382 1 10 38.112835684651635 44.033863905283326 0
383 1 10 45.27399166850244 44.28782341962658 0
384 1 10 52.19149452241486 44.08312577149335 0
385 1 10 59.22777125733476 44.237196658660984 0
386 1 10 65.88687173679702 44.20817119043114 0
387 1 10 72.80223356514318 44.11482906716893 0
388 1 10 79.92830711502073 44.033120980573564 0
389 1 10 86.65420245492831 44.33701873573956 0
390 1 16 93.6858048769417 44.377385135118054 0
391 1 17 100.5773743172018 44.151342815099305 0
392 1 14 107.7310547220384 44.3295498849581 0
393 1 13 114.65152131190041 44.14931652476421 0
394 1 18 121.5395673706892 44.00076206476641 0
395 1 5 128.55027041257154 44.05893819568462 0
396 1 20 135.21972427811397 44.09609690667974 0
397 1 20 142.29368683319097 44.25580279409235 0
398 1 5 149.0398702165251 44.05724989694468 0
399 1 18 156.10949301195595 44.176891315446554 0
400 1 13 163.13738605388696 44.08046803963232 0
401 1 6 -3.244070367082912 48.2009172238411 0
402 1 14 3.849624047309719 48.015436618605904 0
403 1 17 10.575224671682898 48.01608181442235 0
404 1 16 17.635022004959065 48.35425416530545 0
405 1 10 24.491650819396 48.30232368378819 0
406 1 10 31.527976483472603 48.29234894153906 0
407 1 10 38.133453193237145 48.05246734366729 0
408 1 10 45.41698494001142 48.12720725475645 0
409 1 10 52.27676733773538 48.19641995855714 0
410 1 10 58.99493175476236 48.31855460453069 0
411 1 10 66.14111715975383 48.186479190825324 0
412 1 10 73.12097402846925 48.23680858780725 0
413 1 10 79.85043940165129 48.09534045455193 0
414 1 10 86.70196699035178 48.23478371560574 0
415 1 16 93.71302224811602 48.07199271082903 0
416 1 17 100.56485125848292 48.12350391738209 0
417 1 14 107.43845774796884 48.37003778056359 0
418 1 13 114.63877472994304 48.2666083115415 0
419 1 18 121.45433751624725 48.37941663315847 0
420 1 5 128.21501326999638 48.24035112181037 0
421 1 20 135.48552428647554 48.318318997659446 0
422 1 20 142.11213988775583 48.049312926499354 0
423 1 5 149.1155827170287 48.30387082143865 0
424 1 18 156.23943847921353 48.01522458136605 0
425 1 13 163.20544494779105 48.219503828491085 0
426 1 13 0.19973805420171464 50.28035608066803 0
427 1 12 6.96847636729684 50.17898516563695 0
428 1 11 14.10847031502349 50.25295059851266 0
429 1 11 20.994720045127224 50.12878616811943 0
430 1 10 28.015545828987143 50.0717432609968 0
431 1 11 34.86176361390086 50.23938483631035 0
432 1 11 41.8388228464469 50.26554045288682 0
433 1 11 48.52989337009953 50.293014297818786 0
434 1 11 55.527453131294685 50.068545349371526 0
435 1 11 62.65479847840744 50.20431837755074 0
436 1 11 69.6046988989656 50.06321064765907 0
437 1 11 76.30074098309227 50.20440194194014 0
438 1 10 83.41868128599354 50.20640240621416 0
439 1 11 90.2807091392385 50.21336527737159 0
440 1 11 97.03664972767848 50.00930899011426 0
441 1 12 103.95002718229138 50.22295932429532 0
442 1 13 110.94397169567563 50.387546712517 0
443 1 14 117.82953347382997 50.253672108507594 0
444 1 14 124.8663316986911 50.201502076785744 0
445 1 6 131.84800197629127 50.23298637507144 0
446 1 15 138.95967856295485 50.013243264276376 0
447 1 6 145.7825303936841 50.24286605175548 0
448 1 14 152.80103292034352 50.01395938550434 0
449 1 14 159.48659093172805 50.21957477602735 0
450 1 13 166.28608002311154 50.235025700979655 0
451 1 14 0.14293648041617263 54.364593121827355 0
452 1 17 7.146498463210133 54.37621221588694 0
453 1 16 13.89903473906097 54.373987860024165 0
454 1 10 21.125569117696823 54.210620438334196 0
455 1 11 28.00124530701886 54.158160864496374 0
456 1 16 34.98933631129365 54.2198593883928 0
457 1 16 41.83223405910542 54.23719357960028 0
458 1 16 48.80314968103067 54.277929478979885 0
459 1 16 55.578954785746205 54.303793757204325 0
460 1 16 62.39174977114295 54.31267190560395 0
461 1 16 69.52053526228605 54.31660136175828 0
462 1 16 76.41623707296505 54.251896775714286 0
463 1 11 83.30653938230485 54.281422309431626 0
464 1 10 90.14167460089205 54.02407726541756 0
465 1 16 97.36077892760491 54.06080501107512 0
466 1 17 103.93712544331086 54.238859064937195 0
467 1 14 111.01755641905142 54.29956580287813 0
468 1 13 118.15065771498837 54.07410687273859 0
469 1 18 124.76274912453003 54.243943366345796 0
470 1 5 131.77974946578058 54.26748951044862 0
471 1 9 138.91846637105695 54.236448727903664 0
472 1 5 145.61377836302975 54.38629251109804 0
473 1 18 152.60853731442162 54.16879873157388 0
474 1 13 159.38526390361488 54.24538459322123 0
475 1 14 166.49062284099847 54.38412713218449 0
476 1 2 -3.1798109091539626 56.20154384478016 0
477 1 12 3.4690917500117866 56.00809872920498 0
478 1 11 10.705103071550887 56.30821586957671 0
479 1 11 17.482580300978594 56.24171925925134 0
480 1 10 24.457501903642548 56.06900871351947 0
481 1 16 31.557477410927646 56.21912989711399 0
482 1 11 38.365961269065856 56.373608327075395 0
483 1 11 45.23724489725995 56.043291611703424 0
484 1 11 52.093133202631385 56.1219752246749 0
485 1 11 59.289086525456106 56.142575054406926 0
486 1 11 66.05133607161834 56.38281423352677 0
487 1 11 73.03982089391863 56.017938717104144 0
488 1 16 79.80120782033306 56.12308826269096 0
489 1 10 86.66427879461361 56.02114421280648 0
490 1 11 93.88812987757574 56.095182069204235 0
491 1 11 100.76214879578028 56.16218254345812 0
492 1 12 107.45386635755749 56.248373725880704 0
493 1 13 114.52151744304368 56.3021943064979 0
494 1 14 121.31269001550005 56.19364059830358 0
495 1 14 128.31739499364693 56.30837905794143 0
496 1 5 135.18736258404212 56.3895017906737 0
497 1 5 142.25433402568936 56.30961595255473 0
498 1 14 148.98969157878062 56.33273875488569 0
499 1 14 156.19980574075637 56.38471985092266 0
500 1 13 163.10989541926205 56.11394208157641 0
501 1 5 -3.1466657663844013 60.07990871767605 0
502 1 17 3.6806973173003215 60.35900247383922 0
503 1 16 10.525684233442151 60.25558921808456 0
504 1 10 17.684640449320753 60.2239348965703 0
505 1 11 24.605719672693752 60.32182580445613 0
506 1 11 31.290172526571887 60.038941081028284 0
507 1 17 38.12977215810554 60.10754640539778 0
508 1 17 45.29085522955982 60.08132227762872 0
509 1 17 52.297276533009146 60.312725786819755 0
510 1 17 58.97894487333338 60.24388020549494 0
511 1 17 66.03416764530645 60.23146719747629 0
512 1 17 73.06155969404918 60.00950538325922 0
513 1 11 80.04265264674403 60.196616877487 0
514 1 11 86.88150870280194 60.268625739375416 0
515 1 10 93.68262106441239 60.2167713251174 0
516 1 16 100.57177605141322 60.324085462025785 0
517 1 17 107.46967865880949 60.250579462330904 0
518 1 14 114.48631894899061 60.33273210204577 0
519 1 13 121.26308457249813 60.208872920229936 0
520 1 18 128.2637550668537 60.13864337394623 0
521 1 14 135.47949273890632 60.102296890489804 0
522 1 14 142.28868197571848 60.04439302432109 0
523 1 18 149.19777719386713 60.3093445827227 0
524 1 13 156.12274034689392 60.15852026225633 0
525 1 14 163.03350092375481 60.045516266021394 0
526 1 12 0.13710982185134807 62.29321980472965 0
527 1 11 7.167595861648407 62.06715810652058 0
528 1 11 14.0079880855819 62.06136374987388 0
529 1 10 20.924078141157143 62.321439747110276 0
530 1 16 27.73501083384693 62.08400870930164 0
531 1 17 34.979780330028696 62.21301686053409 0
532 1 12 41.8728963634438 62.10867254832484 0
533 1 12 48.54930327159175 62.31685670326232 0
534 1 12 55.60970942627682 62.359607745004695 0
535 1 12 62.485622227975064 62.264076390611216 0
536 1 12 69.36465657603725 62.35557014206402 0
537 1 17 76.2574474320703 62.006996857338514 0
538 1 16 83.27351265532133 62.325772934599804 0
539 1 10 90.34841602780219 62.156225348621696 0
540 1 11 97.01005000860218 62.37579979836661 0
541 1 11 104.23818764918484 62.3934692145137 0
542 1 12 111.1495947286362 62.02299903403609 0
543 1 13 117.95267924197502 62.186733095009906 0
544 1 14 125.04421990312744 62.2990698080563 0
545 1 18 132.03489773294805 62.35348795022991 0
546 1 18 138.95962234642317 62.35564531338763 0
547 1 18 145.6953680464985 62.17251395293052 0