
14309 atoms
14896 bonds
16659 angles
30 atom types
8 bond types
25 angle types

-5.680607966083864 171.52447279080386 xlo xhi
-2.0 148.0 ylo yhi
-4 4 zlo zhi


Masses

1 0.00024081196581196579
2 0.00047115384615384613
3 0.0004920940170940171
4 0.00048162393162393157
5 0.00055491452991453
6 0.0005444444444444444
7 0.0004397435897435897
8 0.0005025641025641026
9 0.000513034188034188
10 0.0007119658119658119
11 0.0007329059829059829
12 0.0007747863247863248
13 0.0008585470085470086
14 0.0007538461538461539
15 0.0007957264957264956
16 0.0008376068376068377
17 0.0007957264957264957
18 0.0006700854700854701
19 0.0008376068376068376
20 0.0005653846153846154
21 0.00046068376068376064
22 0.0005758547008547009
23 0.00048162393162393157
24 0.00046068376068376064
25 0.0005025641025641026
26 0.0005444444444444444
27 0.0005653846153846154
28 0.0005863247863247863
29 0.0004188034188034188
30 0.0005235042735042734

Pair Coeffs

1 0.40509979849834776 0.44544935907016964 0.5
2 0.40509979849834776 0.44544935907016964 0.5
3 0.40509979849834776 0.44544935907016964 0.5
4 0.40509979849834776 0.44544935907016964 0.5
5 0.40509979849834776 0.44544935907016964 0.5
6 0.40509979849834776 0.44544935907016964 0.5
7 0.40509979849834776 0.44544935907016964 0.5
8 0.40509979849834776 0.44544935907016964 0.5
9 0.40509979849834776 0.44544935907016964 0.5
10 0.40509979849834776 0.44544935907016964 0.5
11 0.40509979849834776 0.44544935907016964 0.5
12 0.40509979849834776 0.44544935907016964 0.5
13 0.40509979849834776 0.44544935907016964 0.5
14 0.40509979849834776 0.44544935907016964 0.5
15 0.40509979849834776 0.44544935907016964 0.5
16 0.40509979849834776 0.44544935907016964 0.5
17 0.40509979849834776 0.44544935907016964 0.5
18 0.40509979849834776 0.44544935907016964 0.5
19 0.40509979849834776 0.44544935907016964 0.5
20 0.40509979849834776 0.44544935907016964 0.5
21 0.40509979849834776 0.44544935907016964 0.5
22 0.40509979849834776 0.44544935907016964 0.5
23 0.40509979849834776 0.44544935907016964 0.5
24 0.40509979849834776 0.44544935907016964 0.5
25 0.40509979849834776 0.44544935907016964 0.5
26 0.40509979849834776 0.44544935907016964 0.5
27 0.40509979849834776 0.44544935907016964 0.5
28 0.40509979849834776 0.44544935907016964 0.5
29 0.40509979849834776 0.44544935907016964 0.5
30 0.40509979849834776 0.44544935907016964 0.5

Bond Coeffs

1 96.32478632478632 0.5
2 92.13675213675214 0.5
3 100.51282051282051 0.5
4 108.88888888888889 0.5
5 113.07692307692308 0.5
6 117.26495726495725 0.5
7 83.76068376068375 0.5
8 104.70085470085468 0.5

Angle Coeffs

1 7.447884221510854 180
2 6.5180464527531505 180
3 8.462197047601387 180
4 10.758939186099676 180
5 12.048714155666817 180
6 13.437655496885528 180
7 4.8971047729174675 180
8 9.564657759604428 180
9 6.952011500385498 120
10 7.922707974157674 120
11 7.363964871106535 120
12 11.36735822217451 120
13 10.38473555394374 120
14 5.592489448951654 120
15 8.462197047601387 120
16 8.979716042566581 120
17 8.117997764568411 120
18 7.447884221510854 120
19 9.47334874577337 120
20 12.705337967825052 120
21 12.048714155666817 120
22 6.203956779766412 120
23 6.5180464527531505 120
24 10.126708519792015 120
25 9.564657759604428 120

Atoms

1 1 1 -3.1866384832662837 0.022609613320107736 0
2 1 2 3.7702299712708944 0.2872103582644316 0
3 1 3 10.532395591109903 0.16539020510617722 0
4 1 4 17.65148459782562 0.36587301292406393 0
5 1 5 24.373658981425166 0.38481883353711777 0
6 1 6 31.522361362902238 0.06755068589388573 0
7 1 7 38.29048120766236 0.17256989059611014 0
8 1 8 45.1511003143671 0.33501644998787145 0
9 1 9 52.01594555225685 0.08977553207541651 0
10 1 8 59.07735314867083 0.04538247919494927 0
11 1 8 66.19178060008939 0.37026327050626473 0
12 1 9 73.14591551428582 0.16399705396802708 0
13 1 8 79.97410220793763 0.11757395892282041 0
14 1 7 86.66184901174772 0.2815113219633423 0
15 1 6 93.8430442290691 0.239234032445088 0
16 1 5 100.51266900861661 0.2455247091792744 0
17 1 4 107.7445423870295 0.28433898986350975 0
18 1 3 114.65629236424861 0.1846138903222908 0
19 1 2 121.58266055637073 0.034834534550115315 0
20 1 4 128.47762270149337 0.17239433297800166 0
21 1 4 135.499655118728 0.008112785750981422 0
22 1 4 142.34986268455071 0.15050241008893384 0
23 1 4 149.0863642170886 0.23441207430776273 0
24 1 4 155.92003451851545 0.30947934103726665 0
25 1 4 162.9671470362603 0.0814241467436693 0
26 1 10 0.3871812016477222 2.0982568734645746 0
27 1 11 7.20170466013265 2.0557775114258146 0
28 1 10 13.993533145312862 2.2597562117556382 0
29 1 12 21.068611087631826 2.3220411517632042 0
30 1 13 27.860750859021707 2.2703980719287764 0
31 1 10 34.74237786390628 2.21759588979375 0
32 1 10 41.6832370199603 2.227002233759132 0
33 1 14 48.883003716218596 2.26802409767279 0
34 1 15 55.48981763699144 2.0243654401467683 0
35 1 11 62.68888457989482 2.1433165772235063 0
36 1 15 69.54821081924615 2.310505647570245 0
37 1 14 76.53088536480833 2.2827859260372496 0
38 1 10 83.20669506862406 2.2724041930155474 0
39 1 10 90.21266267093331 2.104751153521023 0
40 1 13 97.19789862735196 2.0720447029567297 0
41 1 12 104.31864204312085 2.077335464118397 0
42 1 10 111.2019586073402 2.0044449005152005 0
43 1 11 118.09631340197706 2.04627691569745 0
44 1 10 125.06610137204363 2.0377487300876824 0
45 1 11 131.92760293588333 2.1623432791798995 0
46 1 11 138.92720445904854 2.2449839374122558 0
47 1 11 145.8501358789761 2.3733859972266544 0
48 1 11 152.50519423287346 2.1565250796777513 0
49 1 11 159.6550691473307 2.3835017054312155 0
50 1 11 166.55503541130292 2.2957288874497976 0
51 1 11 0.2548741871979405 6.1775942030500115 0
52 1 10 7.2405104270690295 6.241294781279793 0
53 1 11 13.861511138520399 6.159861512237942 0
54 1 11 20.870594005953453 6.20935915765751 0
55 1 16 27.77764311034007 6.326939814769781 0
56 1 17 34.79308427099673 6.297661051658057 0
57 1 18 41.786016969289896 6.007371492497554 0
58 1 14 48.87930029946599 6.127024147617185 0
59 1 12 55.77110883733807 6.120298136745393 0
60 1 15 62.446940913258 6.291753122120424 0
61 1 12 69.45319639955879 6.390886076488893 0
62 1 14 76.38851886835262 6.379692827864269 0
63 1 18 83.3179304903639 6.067322226581902 0
64 1 17 90.3902419770819 6.177010741133164 0
65 1 16 97.00818101057936 6.164973858588975 0
66 1 11 104.23198038959076 6.046706259219902 0
67 1 11 110.91373724427358 6.27043826945344 0
68 1 10 117.92841106938143 6.23160900013927 0
69 1 11 124.79952531542924 6.142742460880141 0
70 1 11 131.9273372302605 6.230875252953465 0
71 1 11 138.6066081393542 6.331306577006483 0
72 1 11 145.7309553073127 6.391978506714944 0
73 1 11 152.42320633112018 6.305680358606899 0
74 1 11 159.4596325592159 6.128811802971733 0
75 1 11 166.36286672492997 6.2010748129379 0
76 1 3 -3.2028151086862033 8.037463905964913 0
77 1 10 3.7756112416488286 8.228288206237975 0
78 1 11 10.411593695214627 8.07179662524848 0
79 1 10 17.50828108964441 8.07445010862217 0
80 1 12 24.568720929157973 8.3008637546675 0
81 1 13 31.27556966147295 8.32582546859568 0
82 1 10 38.425741109535984 8.266580835269734 0
83 1 10 45.314555358508514 8.22781598722781 0
84 1 14 52.07039974922882 8.206842202008804 0
85 1 12 59.21229401535525 8.023373269941636 0
86 1 12 65.9550936367002 8.208106665557315 0
87 1 14 73.05001751431905 8.311165412094976 0
88 1 10 79.97008576421878 8.371775791030421 0
89 1 10 86.69452008287655 8.283937816279183 0
90 1 13 93.82668808178597 8.309855306912807 0
91 1 12 100.79489685726068 8.187528421404899 0
92 1 10 107.41261930611194 8.284472522688805 0
93 1 11 114.33337223030746 8.37607872704812 0
94 1 10 121.58647241392775 8.037120690285501 0
95 1 11 128.404333870332 8.063489046915393 0
96 1 10 135.16944719323027 8.242449292251811 0
97 1 10 142.13992438483578 8.239723376385756 0
98 1 10 149.16857007813488 8.140426687878772 0
99 1 10 156.07718439618782 8.05235866209598 0
100 1 10 163.20092160744446 8.225455995647675 0
101 1 4 -3.2201622156886667 12.036346709175392 0
102 1 11 3.482044446769678 12.133810554902327 0
103 1 10 10.624046806488554 12.186284955189828 0
104 1 11 17.608942195106746 12.373877993751488 0
105 1 11 24.51587623311444 12.352459585702658 0
106 1 16 31.332720665356263 12.247476478267133 0
107 1 17 38.15288561570315 12.042016535698213 0
108 1 18 45.32241704892913 12.020640181703792 0
109 1 14 52.30976819126547 12.074958305511787 0
110 1 14 59.0965417993043 12.34989792310443 0
111 1 14 66.01831817357998 12.070146493388952 0
112 1 14 72.78381307893261 12.313955998984893 0
113 1 18 79.7295507322708 12.274559539595353 0
114 1 17 86.95809413511499 12.272169008449337 0
115 1 16 93.90719902036646 12.105638710363296 0
116 1 11 100.54576824982074 12.002173641889986 0
117 1 11 107.42608173796688 12.108055998098287 0
118 1 10 114.33447639316446 12.31789772231512 0
119 1 11 121.32654072262147 12.271270310735302 0
120 1 10 128.430319427361 12.38397869014058 0
121 1 11 135.1082685254235 12.106429419628997 0
122 1 11 142.3611729184086 12.146692626012243 0
123 1 11 149.28318134083773 12.332558957434358 0
124 1 11 155.98469245337705 12.222772516001323 0
125 1 11 163.0164971017512 12.01062325440273 0
126 1 11 0.3085522918545552 14.369413428009027 0
127 1 10 7.098669002057713 14.001506951705704 0
128 1 11 14.125604498313036 14.393387958544421 0
129 1 10 21.171094537096195 14.358095108976283 0
130 1 12 27.782861034193505 14.343615343879971 0
131 1 13 34.99146024049868 14.090733047543662 0
132 1 10 41.69492530474026 14.362339208583768 0
133 1 10 48.60640845433609 14.310400461306385 0
134 1 14 55.42798473363715 14.193769126624323 0
135 1 14 62.41916163970651 14.310685156723647 0
136 1 14 69.63506616723382 14.065575314350124 0
137 1 10 76.31584633319692 14.25731504517812 0
138 1 10 83.52900618314288 14.228389752776186 0
139 1 13 90.3674993628336 14.136541904970468 0
140 1 12 97.30108892612182 14.147884498724858 0
141 1 10 104.26591729359139 14.006852058105984 0
142 1 11 110.90663698382741 14.375764749500531 0
143 1 10 117.84916878077277 14.024895849949104 0
144 1 11 124.81864415513348 14.33412523518133 0
145 1 11 131.70305395611834 14.17355040955125 0
146 1 12 138.63512248542196 14.203171449611396 0
147 1 12 145.87643665972024 14.062131074832966 0
148 1 12 152.713515085116 14.313939700141693 0
149 1 12 159.74861605436283 14.261588782950769 0
150 1 12 166.53572210482443 14.089175874100954 0
151 1 10 0.27525400357804564 18.17384663468413 0
152 1 11 7.106642736575915 18.136853167716197 0
153 1 10 14.09090840812693 18.07256100395383 0
154 1 11 20.924287742706586 18.021569957220464 0
155 1 11 27.886813958117884 18.20193901045489 0
156 1 16 34.65836738242227 18.30260314331013 0
157 1 17 41.723009884567425 18.276665992426096 0
158 1 18 48.87702728608754 18.075953141990983 0
159 1 10 55.526332416821326 18.331268688777687 0
160 1 10 62.64129314600498 18.01453943045823 0
161 1 10 69.29558288055442 18.387173995146348 0
162 1 18 76.48508870403782 18.151819173569965 0
163 1 17 83.48199913416371 18.20572301647391 0
164 1 16 90.43719311333102 18.008637399598165 0
165 1 11 97.16685920621283 18.203491096132595 0
166 1 11 104.069730659554 18.39858493633522 0
167 1 10 110.91932619719832 18.24119734432456 0
168 1 11 118.06672735183749 18.363411454821037 0
169 1 10 124.90454989311004 18.392107823413845 0
170 1 12 131.98482539050633 18.168892323163217 0
171 1 19 138.65311568670813 18.005987832734274 0
172 1 19 145.5587519258222 18.0502138024509 0
173 1 19 152.55118253853394 18.34208607812618 0
174 1 19 159.56535145374937 18.20966000750089 0
175 1 19 166.47456178769335 18.19335924844481 0
176 1 4 -3.11892689611872 20.392981051390553 0
177 1 11 3.709768937660962 20.093099307656164 0
178 1 10 10.54882850484345 20.137387494484706 0
179 1 11 17.38159213960431 20.172973000573123 0
180 1 10 24.479879989325877 20.37190686368351 0
181 1 12 31.20661501746512 20.274766334603388 0
182 1 13 38.439721037374234 20.033271433463437 0
183 1 10 45.41417285829915 20.36420185609924 0
184 1 18 52.01328758478171 20.29918231387441 0
185 1 18 59.22895768932621 20.37327747942572 0
186 1 18 65.98071944223928 20.37976112424279 0
187 1 18 73.02603570265396 20.044390633437885 0
188 1 10 79.7044960324974 20.007415362061668 0
189 1 13 86.98918756879914 20.11506939028784 0
190 1 12 93.83902258789621 20.102002374893924 0
191 1 10 100.80493199906837 20.077196683772552 0
192 1 11 107.5478713639696 20.353733847762896 0
193 1 10 114.46207266572625 20.055709422736754 0
194 1 11 121.54819035710024 20.173108883394548 0
195 1 11 128.25706605490308 20.142465153447542 0
196 1 16 135.2923249476822 20.194359445082732 0
197 1 13 142.22678411437624 20.240701920089826 0
198 1 13 149.34647368240664 20.022466922474248 0
199 1 13 155.920578109837 20.270247016117363 0
200 1 13 163.08257865670268 20.067653140852208 0
201 1 8 -3.123503626350963 24.330628793707177 0
202 1 10 3.7355236906450897 24.008263303385455 0
203 1 11 10.48197968830159 24.25662521721515 0
204 1 10 17.44244577865833 24.063688831080132 0
205 1 11 24.3067980126063 24.378582940380024 0
206 1 11 31.52794269062084 24.198998916367806 0
207 1 16 38.10982580791004 24.13267954645493 0
208 1 17 45.19761822019706 24.227653977909732 0
209 1 10 52.06510516964354 24.31398678396689 0
210 1 10 58.994652141313274 24.211820379988975 0
211 1 10 66.05549873778074 24.043405760058523 0
212 1 10 72.95503004020718 24.127331005603537 0
213 1 17 79.91219023866458 24.336845826342223 0
214 1 16 86.98596739622863 24.171443804591785 0
215 1 11 93.87200868055864 24.197568194564795 0
216 1 11 100.85045227602309 24.26118644393225 0
217 1 10 107.54274396921163 24.28082390396203 0
218 1 11 114.53098606852735 24.355472713457072 0
219 1 10 121.45328195397425 24.16596113119851 0
220 1 12 128.2906853715612 24.059335377935287 0
221 1 13 135.23189985719722 24.069287213529442 0
222 1 17 142.33265402775953 24.098612008526043 0
223 1 17 149.33578005434615 24.314702936043485 0
224 1 17 156.0188035589584 24.369769465414684 0
225 1 17 162.85562251323108 24.22521072366426 0
226 1 11 0.18691992170763966 26.251630850543158 0
227 1 11 7.279045371772836 26.09831285939512 0
228 1 10 13.889956444386899 26.0555836355306 0
229 1 11 21.055927275757927 26.33666351369883 0
230 1 10 27.970343370284137 26.348812780643648 0
231 1 12 34.94670787726325 26.279584590070026 0
232 1 13 41.81685813584119 26.38875571918921 0
233 1 17 48.5978809152884 26.273096959162363 0
234 1 17 55.75615304883513 26.022288376281686 0
235 1 17 62.636907185013825 26.184946300430216 0
236 1 17 69.42885476884938 26.291893956931325 0
237 1 17 76.59307312008333 26.03675781116288 0
238 1 13 83.34855395918142 26.30262557148882 0
239 1 12 90.23660029125834 26.33605414656796 0
240 1 10 97.3095755268701 26.325028910843933 0
241 1 11 104.05020975357003 26.395429733311644 0
242 1 10 111.00472902181143 26.04951266450466 0
243 1 11 118.02050772386451 26.017803858767444 0
244 1 11 124.73292402333114 26.26246119593085 0
245 1 16 132.02430440971986 26.348065541572424 0
246 1 17 138.87297886630617 26.318153503049597 0
247 1 10 145.69077385498395 26.13712140769044 0
248 1 10 152.61253020275467 26.327544623174067 0
249 1 10 159.6583895352836 26.145213713135625 0
250 1 10 166.40193039248302 26.151111890615603 0
251 1 12 0.3733479102712532 30.07962908291405 0
252 1 10 7.292919812260558 30.136020807353372 0
253 1 11 14.16682291148927 30.32402001231869 0
254 1 10 21.164714891664193 30.360445944455318 0
255 1 11 27.739339479419165 30.160155426422293 0
256 1 11 34.84992637106687 30.008431486169208 0
257 1 16 41.726455620252906 30.337401974270264 0
258 1 13 48.77527466740388 30.321576452042567 0
259 1 13 55.65732502645827 30.238549086454757 0
260 1 13 62.658417056956814 30.341360985318254 0
261 1 13 69.5749892076185 30.048570246631023 0
262 1 13 76.27425447792999 30.373510966894358 0
263 1 16 83.1572171801793 30.0765294181123 0
264 1 11 90.08546680034664 30.134656955196157 0
265 1 11 97.39377692883859 30.222231247561844 0
266 1 10 104.1797306952661 30.114347453550433 0
267 1 11 110.90121390783223 30.298659938461316 0
268 1 10 117.97781901208012 30.013866558156927 0
269 1 12 124.9991679935035 30.2465894446626 0
270 1 13 131.7414280501609 30.185616199335854 0
271 1 10 138.67913017170838 30.219120126697884 0
272 1 18 145.68489619965868 30.16416419196367 0
273 1 18 152.42875305812657 30.182979674535623 0
274 1 18 159.70485012452457 30.37210758992349 0
275 1 18 166.4125081038753 30.04294035642705 0
276 1 5 -3.1122391320710907 32.24182710345053 0
277 1 11 3.5358358095838303 32.140883611062705 0
278 1 11 10.454092781225782 32.3997463767176 0
279 1 10 17.528764855430946 32.02016236880514 0
280 1 11 24.284998150480693 32.0942074430874 0
281 1 10 31.25012167880171 32.05093500929836 0
282 1 12 38.2944875379695 32.367952456227194 0
283 1 19 45.38405375681211 32.15211426786549 0
284 1 19 52.28158229877654 32.04495194149402 0
285 1 19 58.934371246500724 32.29344316336326 0
286 1 19 66.16055359869641 32.22067384788338 0
287 1 19 72.92995234494038 32.32057124313634 0
288 1 19 79.96755703815971 32.13944656808009 0
289 1 12 86.88127890099761 32.05685489163107 0
290 1 10 93.5836202315181 32.05480753697917 0
291 1 11 100.54979368540783 32.29031969600857 0
292 1 10 107.66116479830879 32.141443008991956 0
293 1 11 114.39924848044284 32.10710559549421 0
294 1 11 121.39420869993178 32.370825097105936 0
295 1 16 128.5646538857704 32.21868423999875 0
296 1 17 135.4926827199113 32.06886240456758 0
297 1 18 142.0740568017321 32.164628455128586 0
298 1 10 149.09967940807215 32.10370434851755 0
299 1 10 156.0232038217728 32.02855005822362 0
300 1 10 163.1806710271097 32.13793829867588 0
301 1 20 -3.435237108009613 36.12375691936133 0
302 1 12 3.6356685609386257 36.04418440234281 0
303 1 10 10.478549954047374 36.11883198202974 0
304 1 11 17.514244523748594 36.38257540829071 0
305 1 10 24.382955149778162 36.12956440560134 0
306 1 11 31.200634227241824 36.15791253611079 0
307 1 11 38.371384712947545 36.237693230583425 0
308 1 12 45.34548170359096 36.1879828411879 0
309 1 12 52.016695933578085 36.28088085530914 0
310 1 12 59.21625126344017 36.21293006533734 0
311 1 12 65.94939115753046 36.05342091666301 0
312 1 12 72.98016850084915 36.340268992657705 0
313 1 12 80.00503199343737 36.13784086419394 0
314 1 11 86.75961013790103 36.24897136749385 0
315 1 11 93.58607639475714 36.101762057832545 0
316 1 10 100.84049732413315 36.00966853081091 0
317 1 11 107.48308846681822 36.13662609108131 0
318 1 10 114.70278516901949 36.140089016561994 0
319 1 12 121.45593609880152 36.07358963062215 0
320 1 13 128.44655045991067 36.05670433449506 0
321 1 10 135.49754943061728 36.08297412222905 0
322 1 10 142.31381150852485 36.35966338978706 0
323 1 14 149.11285620747455 36.32577715769055 0
324 1 14 156.10623758591427 36.14452733460023 0
325 1 14 162.90172219284176 36.18998406288446 0
326 1 16 0.35840741911250124 38.02003949786523 0
327 1 11 7.033856202551072 38.39071636398036 0
328 1 11 14.008489442118972 38.37226770584409 0
329 1 10 21.170812096116567 38.17699623087189 0
330 1 11 27.96554331905626 38.14877546397938 0
331 1 10 34.826194203509175 38.07663992276206 0
332 1 11 41.86224846149842 38.05143429133339 0
333 1 11 48.6071804587203 38.06488917915726 0
334 1 11 55.55943043861268 38.189500856533535 0
335 1 11 62.575530810038714 38.269777607986036 0
336 1 11 69.42548876062952 38.07011655593521 0
337 1 11 76.25963140838724 38.31813335373523 0
338 1 11 83.21973014144918 38.27369571107326 0
339 1 10 90.27232577475134 38.165381501682965 0
340 1 11 97.09016691829937 38.198718941166625 0
341 1 10 104.079038402819 38.3617914429603 0
342 1 11 111.03078109944994 38.277985366454914 0
343 1 11 118.1073617298073 38.20214830984633 0
344 1 16 124.98581896415412 38.21158711553288 0
345 1 17 132.01159017865203 38.21044198049931 0
346 1 18 138.62924915998798 38.38891177604714 0
347 1 14 145.49332196622868 38.040891007990666 0
348 1 14 152.5611418994509 38.17159111770636 0
349 1 14 159.74115798283 38.13380728919043 0
350 1 14 166.40722249835127 38.18380802753078 0
351 1 13 0.3467987887792338 42.19334502465016 0
352 1 12 6.9532108613941 42.240629336394115 0
353 1 10 14.243896282773841 42.20242622934975 0
354 1 11 21.002233678770036 42.26203267700596 0
355 1 10 27.741382083620998 42.39323389384258 0
356 1 11 34.831594177605005 42.222144567432714 0
357 1 10 41.821198524763325 42.00876708498259 0
358 1 10 48.86964390742984 42.28893909653457 0
359 1 10 55.4957680217603 42.31231780206973 0
360 1 10 62.45739668966352 42.10469645160738 0
361 1 10 69.2921122209768 42.096570191051754 0
362 1 10 76.40684978692447 42.357298995591805 0
363 1 10 83.40765965350953 42.03574814887605 0
364 1 11 90.2300852466053 42.24430137439234 0
365 1 10 97.09549800657821 42.399698894589015 0
366 1 11 104.15583253679095 42.28633317865094 0
367 1 10 111.0939706316354 42.32027377694063 0
368 1 12 118.06178765338917 42.21251295324811 0
369 1 13 124.79910614578885 42.004413348938 0
370 1 10 131.90183733589822 42.294884633086376 0
371 1 10 138.95658563845092 42.38861048794855 0
372 1 14 145.56469789039454 42.24199447809009 0
373 1 12 152.47588352763398 42.2425071247729 0
374 1 12 159.4254214739944 42.19406943310996 0
375 1 14 166.53169323875582 42.3264003890039 0
376 1 6 -3.081462263049174 44.289561119940515 0
377 1 16 3.76193518158246 44.26734093508367 0
378 1 11 10.46456508982631 44.079948729589994 0
379 1 11 17.42262533664841 44.04878990528961 0
380 1 10 24.53810269877174 44.08372524349204 0
381 1 11 31.366857762581077 44.016719540693124 0
382 1 11 38.2292822691042 44.38688663746419 0
383 1 11 45.42233206775179 44.02611327772006 0
384 1 11 52.0143786069114 44.35150252620637 0
385 1 11 58.942335239520865 44.145394721312165 0
386 1 11 66.01684295287662 44.11393642644016 0
387 1 11 72.86151791462659 44.369565062869796 0
388 1 11 79.74367003288776 44.36558602847538 0
389 1 11 86.68900491168107 44.36267389089482 0
390 1 11 93.86362568555111 44.04700104535304 0
391 1 10 100.72674173834568 44.38910152630963 0
392 1 11 107.41956839499608 44.04195475270914 0
393 1 11 114.46066994979923 44.16806410171094 0
394 1 16 121.55211913628695 44.02162056214867 0
395 1 17 128.41882006749674 44.340510206893306 0
396 1 18 135.37404241642503 44.14879997958457 0
397 1 14 142.20981846208016 44.170312859424804 0
398 1 12 149.0875485022135 44.2884560843957 0
399 1 15 156.0445987779906 44.28950751516576 0
400 1 12 163.11360134643732 44.01001021118469 0
401 1 8 -3.2600388662501554 48.16387698176947 0
402 1 13 3.8594598754148057 48.366721904107195 0
403 1 12 10.646987938677075 48.365017109044295 0
404 1 10 17.35050178362492 48.1963252345608 0
405 1 11 24.569410414512237 48.37949250579191 0
406 1 10 31.288051441028152 48.279691756669216 0
407 1 11 38.220266320479354 48.05860941791849 0
408 1 11 45.079317739651565 48.12598160570113 0
409 1 11 52.264079657376314 48.33932115104982 0
410 1 11 59.03334317817767 48.26053712604125 0
411 1 11 65.93443849073913 48.26847776563044 0
412 1 11 73.13183251702456 48.37862148503961 0
413 1 11 79.96961027467295 48.02954309110028 0
414 1 11 86.80447748842788 48.21543934301863 0
415 1 10 93.85292551877501 48.19703078987719 0
416 1 11 100.83545549446173 48.370277120173 0
417 1 10 107.40381870240026 48.06245112953159 0
418 1 12 114.44737271939297 48.2603633362886 0
419 1 13 121.62569187922209 48.20421176130852 0
420 1 10 128.4491518059393 48.139671655212716 0
421 1 10 135.4011556808091 48.091538423086575 0
422 1 14 142.06211612434487 48.369520510597965 0
423 1 15 149.15979937550776 48.08593785690141 0
424 1 11 156.19117470073877 48.11203125446137 0
425 1 15 162.9408151719915 48.26528856912951 0
426 1 17 0.21420315136687879 50.02948744225462 0
427 1 16 6.961899450545419 50.11008144948835 0
428 1 11 13.923652156211848 50.0301879919515 0
429 1 11 20.873874542461937 50.22839341133747 0
430 1 10 27.8514559433616 50.032581052579296 0
431 1 10 34.78890500340942 50.302187174745804 0
432 1 10 41.67398086083882 50.02955734072808 0
433 1 10 48.7627658654201 50.036452477875144 0
434 1 10 55.530750307829045 50.05487994421696 0
435 1 10 62.744531149769564 50.15649433477201 0
436 1 10 69.46368574786621 50.10822120834117 0
437 1 10 76.48450973125998 50.153350392146294 0
438 1 10 83.20029630725169 50.005977966826364 0
439 1 10 90.09253520876736 50.35891803675502 0
440 1 10 97.05288935194638 50.139150194977354 0
441 1 11 104.19132769456314 50.02837918661472 0
442 1 11 111.04954961122878 50.05587782691115 0
443 1 16 118.10910940510263 50.06025060317263 0
444 1 17 124.75849543620154 50.07693008586645 0
445 1 18 131.9387059119764 50.05879333582559 0
446 1 14 138.85128992676172 50.392847552099454 0
447 1 12 145.84947085315807 50.36438516608929 0
448 1 11 152.72994991766936 50.215080813457234 0
449 1 11 159.4008880689719 50.25712493391569 0
450 1 12 166.61085432561427 50.00052752500228 0
451 1 17 0.32728858108814074 54.23841659921874 0
452 1 16 7.081703186116178 54.068266112631335 0
453 1 11 13.897664471832975 54.081618265772455 0
454 1 11 20.83341857207019 54.35944104897268 0
455 1 10 28.054180222598895 54.15211895113036 0
456 1 10 34.818283457026126 54.18303163521123 0
457 1 10 41.649858775809335 54.05873563307003 0
458 1 10 48.59644991197898 54.356135155746166 0
459 1 10 55.61199853339581 54.23296662970352 0
460 1 10 62.65299620514801 54.120324324248145 0
461 1 10 69.28830379501352 54.29218401139644 0
462 1 10 76.53919325181056 54.16803984662849 0
463 1 10 83.22312857303342 54.20810944363212 0
464 1 10 90.10678344572217 54.297720244633666 0
465 1 10 97.24162277898557 54.18207802108956 0
466 1 11 103.99146162013768 54.39780871073915 0
467 1 11 111.23800562458949 54.09850123241996 0
468 1 16 118.01351097199756 54.1136450157579 0
469 1 17 124.96597829046264 54.257597257645074 0
470 1 18 131.71233976365977 54.135419615929344 0
471 1 14 138.9011913471773 54.00712014105572 0
472 1 12 145.70024721982185 54.36949019538034 0
473 1 11 152.53676530671635 54.11257863039156 0
474 1 11 159.43763559341346 54.29839650178783 0
475 1 12 166.5003237378856 54.075252393541675 0
476 1 8 -3.156680842671448 56.103039431737336 0
477 1 13 3.5315594131428725 56.20902694814133 0
478 1 12 10.686477622346148 56.13243415870136 0
479 1 10 17.33880184276606 56.139914543046814 0
480 1 11 24.50803712006978 56.36729787441609 0
481 1 10 31.369875132133224 56.04213671003703 0
482 1 11 38.19286571999618 56.22564972498243 0
483 1 11 45.36571983002081 56.27076525701054 0
484 1 11 52.29563292348792 56.142160404247406 0
485 1 11 58.913216037314214 56.24500652739856 0
486 1 11 65.82647785471114 56.225749465146414 0
487 1 11 72.80059800921698 56.30430427621947 0
488 1 11 79.8015055317567 56.149279925000094 0
489 1 11 86.87406493330931 56.20289619471415 0
490 1 10 93.56172403362449 56.35304126271963 0
491 1 11 100.58164124182498 56.31290674918044 0
492 1 10 107.68710233806041 56.09317239760607 0
493 1 12 114.67239259974247 56.048966209108094 0
494 1 13 121.60705684747403 56.292079315580764 0
495 1 10 128.409524935855 56.22688466902854 0
496 1 10 135.20696746672692 56.247603895939086 0
497 1 14 142.40238276000176 56.3201163931386 0
498 1 15 149.34219568158974 56.037794460383324 0
499 1 11 155.9012819769407 56.10611722339869 0
500 1 15 162.9202967366225 56.372598942351125 0
501 1 6 -3.0970850733713027 60.00810004776816 0
502 1 16 3.5681079813258623 60.25204420229589 0
503 1 11 10.51137484215921 60.067609883671224 0
504 1 11 17.413829567133522 60.14235277700595 0
505 1 10 24.295078393979065 60.21841919637227 0
506 1 11 31.472488225047247 60.23811815791016 0
507 1 11 38.411187972852524 60.30911359355602 0
508 1 11 45.2912771269256 60.31909814601773 0
509 1 11 51.9700373735407 60.083643825655216 0
510 1 11 58.9734107687289 60.09043206662521 0
511 1 11 66.000877802327 60.16534170380747 0
512 1 11 72.75033850768962 60.37909809272116 0
513 1 11 80.05553357975278 60.164561753584785 0
514 1 11 86.93536583698923 60.252517517141804 0
515 1 11 93.79905150211074 60.09205513057521 0
516 1 10 100.53677928597726 60.276985855921836 0
517 1 11 107.70698186547438 60.02740688118453 0
518 1 11 114.62979599468035 60.09271010703912 0
519 1 16 121.4238894648981 60.04910394770894 0
520 1 17 128.25844853439642 60.133469533465295 0
521 1 18 135.38066251037293 60.15710279397623 0
522 1 14 142.35727696349213 60.012514248586825 0
523 1 12 149.0622154211047 60.2503436680044 0
524 1 15 156.02460322848293 60.05235549538107 0
525 1 12 162.9511262782615 60.33553365354688 0
526 1 13 0.26644083122034184 62.36426476744831 0
527 1 12 6.973518581136984 62.12502317634186 0
528 1 10 14.072493559664915 62.14531441253829 0
529 1 11 20.863852056574537 62.27633011667296 0
530 1 10 27.89966747508734 62.17587136904469 0
531 1 11 34.68578471609026 62.088744925876306 0
532 1 10 41.71754072505701 62.172370239104005 0
533 1 10 48.86057465957896 62.38705179669534 0
534 1 10 55.78771748435889 62.30082708936579 0
535 1 10 62.497222285189025 62.10847381483331 0
536 1 10 69.53257059405954 62.00897049012969 0
537 1 10 76.2662268321556 62.33858660517853 0
538 1 10 83.32518248256355 62.250581359556534 0
539 1 11 90.32544330039596 62.28317003016441 0
540 1 10 97.31107191461456 62.15332068818945 0
541 1 11 104.19186896193132 62.03558876286877 0
542 1 10 110.9562012983647 62.3149850331289 0
543 1 12 118.00960690431086 62.233408553183324 0
544 1 13 125.02888641101302 62.287253766825636 0
545 1 10 131.86033638832038 62.30918102400279 0
546 1 10 138.89080595181588 62.02870943050731 0
547 1 14 145.6482408458132 62.17037033987334 0
548 1 12 152.54424530175038 62.317241226512124 0
549 1 12 159.41167326912242 62.16845122615033 0