
14309 atoms
14896 bonds
16659 angles
40 atom types
10 bond types
28 angle types

-5.680607966083864 171.52447279080386 xlo xhi
-2.0 148.0 ylo yhi
-4 4 zlo zhi


Masses

1 0.00020521675238795005
2 0.0003967523879500368
3 0.0005198824393828068
4 0.0007661425422483467
5 0.0006703747244673035
6 0.00036939015429831006
7 0.0003146656869948568
8 0.00027362233651726675
9 0.00028730345334313005
10 0.0003283468038207201
11 0.0004104335047759001
12 0.0006019691403379867
13 0.0006293313739897134
14 0.00098504041146216
15 0.00114921381337252
16 0.00043779573842762676
17 0.00041043350477590015
18 0.00046515797207935343
19 0.0004925202057310802
20 0.0006293313739897136
21 0.0008208670095518002
22 0.0009576781778104336
23 0.0005472446730345335
24 0.0004651579720793534
25 0.0005746069066862601
26 0.00035570903747244675
27 0.0004241146216017634
28 0.0006840558412931668
29 0.00030098457016899336
30 0.0004788390889052168
31 0.0004104335047759001
32 0.00038307127112417337
33 0.00043779573842762676
34 0.0006019691403379867
35 0.0007661425422483467
36 0.0005746069066862601
37 0.00035570903747244675
38 0.0003283468038207201
39 0.00030098457016899336
40 0.00027362233651726675

Pair Coeffs

1 0.40509979849834776 0.44544935907016964 0.5
2 0.40509979849834776 0.44544935907016964 0.5
3 0.40509979849834776 0.44544935907016964 0.5
4 0.40509979849834776 0.44544935907016964 0.5
5 0.40509979849834776 0.44544935907016964 0.5
6 0.40509979849834776 0.44544935907016964 0.5
7 0.40509979849834776 0.44544935907016964 0.5
8 0.40509979849834776 0.44544935907016964 0.5
9 0.40509979849834776 0.44544935907016964 0.5
10 0.40509979849834776 0.44544935907016964 0.5
11 0.40509979849834776 0.44544935907016964 0.5
12 0.40509979849834776 0.44544935907016964 0.5
13 0.40509979849834776 0.44544935907016964 0.5
14 0.40509979849834776 0.44544935907016964 0.5
15 0.40509979849834776 0.44544935907016964 0.5
16 0.40509979849834776 0.44544935907016964 0.5
17 0.40509979849834776 0.44544935907016964 0.5
18 0.40509979849834776 0.44544935907016964 0.5
19 0.40509979849834776 0.44544935907016964 0.5
20 0.40509979849834776 0.44544935907016964 0.5
21 0.40509979849834776 0.44544935907016964 0.5
22 0.40509979849834776 0.44544935907016964 0.5
23 0.40509979849834776 0.44544935907016964 0.5
24 0.40509979849834776 0.44544935907016964 0.5
25 0.40509979849834776 0.44544935907016964 0.5
26 0.40509979849834776 0.44544935907016964 0.5
27 0.40509979849834776 0.44544935907016964 0.5
28 0.40509979849834776 0.44544935907016964 0.5
29 0.40509979849834776 0.44544935907016964 0.5
30 0.40509979849834776 0.44544935907016964 0.5
31 0.40509979849834776 0.44544935907016964 0.5
32 0.40509979849834776 0.44544935907016964 0.5
33 0.40509979849834776 0.44544935907016964 0.5
34 0.40509979849834776 0.44544935907016964 0.5
35 0.40509979849834776 0.44544935907016964 0.5
36 0.40509979849834776 0.44544935907016964 0.5
37 0.40509979849834776 0.44544935907016964 0.5
38 0.40509979849834776 0.44544935907016964 0.5
39 0.40509979849834776 0.44544935907016964 0.5
40 0.40509979849834776 0.44544935907016964 0.5

Bond Coeffs

1 82.08670095518002 0.5
2 76.61425422483468 0.5
3 87.55914768552535 0.5
4 120.39382806759735 0.5
5 153.22850844966936 0.5
6 114.92138133725203 0.5
7 71.14180749448936 0.5
8 65.66936076414402 0.5
9 60.19691403379868 0.5
10 54.72446730345335 0.5

Angle Coeffs

1 4.6093231792942655 180
2 3.7475504604395447 180
3 5.594011182930168 180
4 14.5422439150001 180
5 29.980403683516357 180
6 12.647982803983467 180
7 3.0004986740472606 180
8 2.3599734677986643 180
9 1.8177804893750125 180
10 1.3657253864575607 180
11 4.134003204439765 120
12 8.07990112260451 120
13 29.980403683516357 120
14 17.790569218789937 120
15 3.3326728846734173 120
16 2.053693812121622 120
17 1.3657253864575607 120
18 1.5596572195409797 120
19 2.3599734677986643 120
20 4.6093231792942655 120
21 5.054152788753666 120
22 19.5847446884713 120
23 14.5422439150001 120
24 5.781934996106728 120
25 12.647982803983467 120
26 2.641967749683396 120
27 3.0004986740472606 120
28 1.8177804893750125 120

Atoms

1 1 1 -3.15744342713713 0.18488753267212688 0
2 1 2 3.750278008664121 0.38930483992531606 0
3 1 3 10.762628086754365 0.03193594783867009 0
4 1 4 17.700846057265522 0.2880563251107347 0
5 1 5 24.486214692616326 0.10466363640411776 0
6 1 6 31.477181688116662 0.2534758135239673 0
7 1 7 38.127937061848925 0.1481286552376062 0
8 1 8 45.14954904024603 0.07820354908186965 0
9 1 9 52.25596138934854 0.13136691245128285 0
10 1 10 58.93033376188134 0.35292842325050144 0
11 1 10 65.83120389935775 0.33854549180220617 0
12 1 9 72.9387650707533 0.30729294785043876 0
13 1 8 79.75784038695593 0.06844993113643141 0
14 1 7 86.65782686944127 0.3580332580661575 0
15 1 6 93.75682496219858 0.04676269610782047 0
16 1 5 100.51140128615324 0.3110283931076363 0
17 1 4 107.48225085533826 0.286662646729447 0
18 1 3 114.55159176427185 0.05712875324915676 0
19 1 2 121.54042978025971 0.2295563860896056 0
20 1 11 128.26437211222168 0.206314822190864 0
21 1 11 135.13364440642795 0.08882715493948977 0
22 1 11 142.17023238393224 0.18181914022460474 0
23 1 11 149.110127515717 0.07286845658344458 0
24 1 11 156.20324395078552 0.25389968971453064 0
25 1 11 162.94030877201956 0.2184705547646973 0
26 1 12 0.15155890489711524 2.1650002984528394 0
27 1 13 7.1478186759875655 2.2705762811736676 0
28 1 14 13.906538559038431 2.009463407247907 0
29 1 15 20.84006225374702 2.240772411640222 0
30 1 4 27.731242442769446 2.023752467963196 0
31 1 3 34.65887611613955 2.1070548505307274 0
32 1 16 41.603477784337116 2.04568650496926 0
33 1 17 48.56674682493463 2.384613684139139 0
34 1 18 55.64469159418037 2.2310662179219185 0
35 1 19 62.46980722928479 2.15946289746758 0
36 1 18 69.6417404187845 2.344165644860527 0
37 1 17 76.23340714289537 2.073509160488216 0
38 1 16 83.44465253296428 2.3744179344884335 0
39 1 3 90.36100205565258 2.058308664488556 0
40 1 4 97.23846069636042 2.3413213517956297 0
41 1 15 104.022766789638 2.129254827085269 0
42 1 14 110.88936309307749 2.049833341900754 0
43 1 13 117.92135032627647 2.0232004122746785 0
44 1 12 124.97997070098509 2.28648208427634 0
45 1 20 131.72749475782769 2.1989585120244213 0
46 1 20 138.68398176545728 2.044880103958187 0
47 1 20 145.62532844594665 2.0419175788727637 0
48 1 20 152.53581163275462 2.1860811353486995 0
49 1 20 159.62562287142762 2.1231301958751447 0
50 1 20 166.3443152896556 2.2296718697606783 0
51 1 13 0.3073589184267873 6.377605157820008 0
52 1 12 6.947518988585389 6.248996123342144 0
53 1 21 14.104745108179669 6.393657177002709 0
54 1 15 21.02356945546428 6.0454016364684335 0
55 1 22 27.84760420572086 6.038806048218677 0
56 1 23 34.952767410294626 6.225772293458644 0
57 1 18 41.57752648837729 6.377181948838069 0
58 1 17 48.81760115404516 6.103763870165033 0
59 1 16 55.7908397969174 6.096305504878075 0
60 1 24 62.701222530969 6.355175055174446 0
61 1 16 69.37296768407896 6.149363127326085 0
62 1 17 76.60388355681144 6.158014709269613 0
63 1 18 83.26455601949563 6.131804055325684 0
64 1 23 90.43252583984784 6.1848082997454785 0
65 1 22 97.16118014304571 6.028855787703893 0
66 1 15 104.17915274441197 6.327615260427964 0
67 1 21 111.23157760094485 6.201494670617694 0
68 1 12 117.90525154555613 6.017059900776769 0
69 1 13 124.896338654268 6.366001273218711 0
70 1 21 131.9443600698904 6.256117217867733 0
71 1 21 138.9621721407142 6.0925557104941115 0
72 1 21 145.6039823509578 6.303893480820451 0
73 1 21 152.72391678888482 6.029217726781244 0
74 1 21 159.67998302516875 6.083277359735944 0
75 1 21 166.66074517918432 6.12078168667668 0
76 1 3 -3.311917975316909 8.338269177369007 0
77 1 12 3.8505686441742695 8.262685934995433 0
78 1 13 10.679915022896536 8.325398995086388 0
79 1 14 17.558948855723 8.043594546052041 0
80 1 15 24.551276221740622 8.287181805321856 0
81 1 4 31.560198935514688 8.303666241786614 0
82 1 3 38.410141839676 8.191294314124 0
83 1 16 45.36894372482648 8.131880441190512 0
84 1 17 52.35144980254663 8.181008238277805 0
85 1 16 58.96613312831648 8.216682433851837 0
86 1 16 66.06233199454269 8.182888478033385 0
87 1 17 72.9668635321088 8.270262002833501 0
88 1 16 79.69872472679482 8.037582493862285 0
89 1 3 86.80963190404525 8.357171982998498 0
90 1 4 93.91265969996778 8.332183364150687 0
91 1 15 100.57064048045063 8.03225866344042 0
92 1 14 107.60759438318567 8.242944058876644 0
93 1 13 114.58244168130504 8.19579637055498 0
94 1 12 121.2655081000056 8.340876386788903 0
95 1 21 128.5108565541453 8.2193508776318 0
96 1 14 135.40680153984462 8.243520074598734 0
97 1 14 142.15019082959918 8.146889373385566 0
98 1 14 149.14623601226 8.375205364437653 0
99 1 14 156.24412481245056 8.265494061484821 0
100 1 14 162.86073700776168 8.089569580455695 0
101 1 12 -3.108120199888032 12.090665988807327 0
102 1 13 3.7332426557638936 12.22519636180819 0
103 1 12 10.541671894158343 12.308800776227493 0
104 1 21 17.45794267832251 12.371484008471427 0
105 1 15 24.307589293188453 12.205848087379346 0
106 1 22 31.39138883389498 12.30049898241412 0
107 1 23 38.32101716373654 12.335688326461508 0
108 1 18 45.18103226450619 12.205512973199122 0
109 1 17 52.288474566928784 12.310191052064503 0
110 1 17 58.91210030616385 12.25420886901849 0
111 1 17 66.0577214147442 12.350063036881513 0
112 1 17 72.83296190328537 12.248746309319992 0
113 1 18 79.97934438945522 12.179438852324568 0
114 1 23 86.96789483929024 12.122470438316924 0
115 1 22 93.77227546426461 12.307016783163366 0
116 1 15 100.67811125781799 12.356334568898326 0
117 1 21 107.76221928956367 12.195208564276205 0
118 1 12 114.37767061455254 12.213079852494072 0
119 1 13 121.62020704012805 12.178580338261682 0
120 1 14 128.18282952985774 12.029201580273062 0
121 1 15 135.42663069528064 12.321009213306992 0
122 1 15 142.03682643634102 12.398384033985465 0
123 1 15 149.10833366560226 12.136381651076356 0
124 1 15 155.90564657617313 12.337198718420085 0
125 1 15 163.02282988520557 12.206946361657115 0
126 1 21 0.15543960677575003 14.334436826256754 0
127 1 12 6.976376600387805 14.354887515012878 0
128 1 13 14.011108693707882 14.315148839786831 0
129 1 14 20.874543108872043 14.090682129967531 0
130 1 15 27.795997121922163 14.17674867920321 0
131 1 4 34.75658247069056 14.077454890561258 0
132 1 3 41.85148809783856 14.230731934892459 0
133 1 16 48.841557965581515 14.356993792753437 0
134 1 17 55.4846848716419 14.383338812883714 0
135 1 17 62.59499448430686 14.254466648401783 0
136 1 17 69.59422014981492 14.241495831617645 0
137 1 16 76.32054490895447 14.00913624037758 0
138 1 3 83.30293670426066 14.012882236830302 0
139 1 4 90.38414460007706 14.147008242205334 0
140 1 15 97.14156958300136 14.353387784962333 0
141 1 14 103.99475794758945 14.264387316886516 0
142 1 13 111.20327815350355 14.261157791472991 0
143 1 12 117.89355627014064 14.247037296119505 0
144 1 21 124.76351923898527 14.193947795761908 0
145 1 15 131.77221297175336 14.209071295647522 0
146 1 15 138.63895607860414 14.045920347435935 0
147 1 15 145.63758694464184 14.070437785902676 0
148 1 15 152.64888568070313 14.315292930397716 0
149 1 15 159.69594810869253 14.183086520347045 0
150 1 15 166.65014610960534 14.092085189151017 0
151 1 14 0.18531115497487138 18.396791811604686 0
152 1 13 7.204013874691244 18.372681786356434 0
153 1 12 14.144343738281849 18.154186624387094 0
154 1 21 20.83295006220603 18.352507996483407 0
155 1 15 28.001528340347853 18.259392589980756 0
156 1 22 34.992546083091206 18.005904452507597 0
157 1 23 41.820795185296795 18.01152739849339 0
158 1 18 48.882760603750505 18.180957595991778 0
159 1 16 55.44952799590525 18.055655393069888 0
160 1 16 62.514955217431 18.270461281464822 0
161 1 16 69.3084966807048 18.38768041390273 0
162 1 18 76.28710122909587 18.129266396081075 0
163 1 23 83.38039240593412 18.03979644361195 0
164 1 22 90.26083400922126 18.380185350502952 0
165 1 15 97.0250617482918 18.09777513350509 0
166 1 21 103.97672992960118 18.1005663410036 0
167 1 12 110.8566920362417 18.140255277881405 0
168 1 13 117.95913854520767 18.16299640474928 0
169 1 14 124.90724642052652 18.19072971961775 0
170 1 15 131.74591318749773 18.28478053025202 0
171 1 22 138.8812370564919 18.32916304102353 0
172 1 22 145.74021864135264 18.387610669190792 0
173 1 22 152.66440208972983 18.12930836988136 0
174 1 22 159.56444175742462 18.11841662374466 0
175 1 22 166.34578747446818 18.12054195501972 0
176 1 4 -3.4569607558217275 20.341509373310565 0
177 1 21 3.8317433496748037 20.275413489394484 0
178 1 12 10.466585255902205 20.02948093471488 0
179 1 13 17.631154565596812 20.119754872195 0
180 1 14 24.54277613144927 20.03942428285373 0
181 1 15 31.44375343406385 20.227666452953557 0
182 1 4 38.201107334219564 20.073939270379835 0
183 1 3 45.160472942533694 20.24022042394823 0
184 1 24 52.20532339327017 20.3215525902206 0
185 1 24 59.05987905205663 20.041512328001918 0
186 1 24 66.04532511254483 20.248473674336385 0
187 1 24 72.92305200254923 20.31395749272426 0
188 1 3 80.06351291312588 20.068724426985003 0
189 1 4 86.97053200437645 20.31151581507991 0
190 1 15 93.56983662898514 20.025150577330486 0
191 1 14 100.79180742321687 20.019246853266054 0
192 1 13 107.57211542457847 20.382016482229627 0
193 1 12 114.4555416241433 20.207483113877718 0
194 1 21 121.5450699192799 20.218871048964672 0
195 1 15 128.39284669501723 20.388115740340638 0
196 1 22 135.49247229646755 20.19226631638405 0
197 1 4 142.316647573229 20.086628062752588 0
198 1 4 148.97577703340755 20.197794516990037 0
199 1 4 156.11547797270728 20.114597659576045 0
200 1 4 163.04039451790297 20.346793626658723 0
201 1 4 -3.449750194504363 24.27585721534543 0
202 1 14 3.538247192240646 24.214328367836803 0
203 1 13 10.649141676913413 24.207500157423947 0
204 1 12 17.702024762978418 24.373783281922666 0
205 1 21 24.338011222170472 24.005503617517174 0
206 1 15 31.206118620244492 24.147130279083328 0
207 1 22 38.272834478445226 24.084807861489868 0
208 1 23 45.2224692964745 24.262865863570177 0
209 1 3 52.01357994957585 24.322502008706962 0
210 1 3 59.134066683225655 24.314940583862928 0
211 1 3 65.96515523367783 24.39415875650282 0
212 1 3 73.08092677911921 24.153638761630305 0
213 1 23 79.71884029941486 24.089852098795955 0
214 1 22 86.61169922621245 24.261367423765417 0
215 1 15 93.54868181467258 24.379639533704818 0
216 1 21 100.71186323248774 24.022871918998543 0
217 1 12 107.74455921344118 24.20593474826858 0
218 1 13 114.47248756130567 24.160084725334475 0
219 1 14 121.63042133627731 24.056175534044574 0
220 1 15 128.40395540915486 24.212923495052326 0
221 1 4 135.36933719324284 24.36674876612918 0
222 1 23 142.15293612851252 24.13455066659796 0
223 1 23 149.2167390063359 24.03716209621994 0
224 1 23 156.19604668625402 24.108840605098326 0
225 1 23 162.83796402369512 24.186196622990725 0
226 1 15 0.290804629941032 26.119320805866288 0
227 1 21 7.272946181334634 26.223767870476166 0
228 1 12 14.202908435120483 26.06129745539081 0
229 1 13 20.87445285108308 26.2992375287996 0
230 1 14 27.972153245993013 26.259270039691035 0
231 1 15 34.876778186183785 26.254464846733285 0
232 1 4 41.7620502187582 26.007058769683916 0
233 1 23 48.592091028284 26.350243101574645 0
234 1 23 55.68291410698757 26.340453707695026 0
235 1 23 62.60613977694254 26.09709002613205 0
236 1 23 69.51274010613601 26.276476427605022 0
237 1 23 76.48303720933698 26.125018024957264 0
238 1 4 83.22717801915796 26.14272681364282 0
239 1 15 90.32365775729278 26.174976693812436 0
240 1 14 97.07518463722305 26.179801930061657 0
241 1 13 104.0110377103394 26.267479437573638 0
242 1 12 110.8769034400613 26.039616814369623 0
243 1 21 118.15248013859585 26.330532538475886 0
244 1 15 124.80395486409073 26.168544979350102 0
245 1 22 131.94932105950005 26.108773879909975 0
246 1 23 138.86622614169622 26.193893181280853 0
247 1 3 145.79458426669973 26.32057965520923 0
248 1 3 152.70414863467997 26.396436542839705 0
249 1 3 159.67121375141207 26.357415001643957 0
250 1 3 166.53138540194334 26.310612471792002 0
251 1 15 0.2123348057682698 30.006775381738244 0
252 1 14 7.186657663339878 30.22107080571356 0
253 1 13 14.102831286742552 30.089596092430806 0
254 1 12 20.85577360836898 30.31965784778644 0
255 1 21 27.9753324674495 30.000140409514596 0
256 1 15 34.82636792503749 30.223810680214967 0
257 1 22 41.95887706924759 30.02091530880128 0
258 1 4 48.70837637200251 30.052427413577263 0
259 1 4 55.79763476699439 30.21413315813895 0
260 1 4 62.57456005156075 30.11004009372175 0
261 1 4 69.47216544748014 30.146174383539964 0
262 1 4 76.464259562534 30.167942149505585 0
263 1 22 83.33685540137982 30.045009139019598 0
264 1 15 90.31695270594021 30.21142932822345 0
265 1 21 97.00128437474618 30.092597562629386 0
266 1 12 103.98227150320223 30.06220748100084 0
267 1 13 111.22737932071512 30.39506950068216 0
268 1 14 118.03165985866548 30.35159127557837 0
269 1 15 124.87316892808526 30.096868936101703 0
270 1 4 131.89064513780113 30.372550697694567 0
271 1 3 138.63986128030032 30.026303662558178 0
272 1 24 145.8105996920122 30.097880488357628 0
273 1 24 152.52095898120726 30.047436259429773 0
274 1 24 159.66399274908542 30.069078636109023 0
275 1 24 166.66108624928663 30.37244484061722 0
276 1 5 -3.1401416111398506 32.3826068930849 0
277 1 15 3.733731051144519 32.31111079928875 0
278 1 21 10.78430303172317 32.135067454017964 0
279 1 12 17.71353335419037 32.39182188812934 0
280 1 13 24.378870213826577 32.34712799865659 0
281 1 14 31.25734871210282 32.03186028557189 0
282 1 15 38.12961386997532 32.14062099455623 0
283 1 22 45.26589789400007 32.09987755931355 0
284 1 22 52.25067448266046 32.25256284509211 0
285 1 22 59.01478736084859 32.108687542583624 0
286 1 22 65.94499498126666 32.1694955675054 0
287 1 22 73.01479092158637 32.34511115498979 0
288 1 22 79.99981540173602 32.2824006115719 0
289 1 15 86.90197362116368 32.36222927641274 0
290 1 14 93.70686904824059 32.297180399661244 0
291 1 13 100.62538026889091 32.048683067604976 0
292 1 12 107.64357139301454 32.3533949994373 0
293 1 21 114.49019596066762 32.05870451956022 0
294 1 15 121.53348131163102 32.15103927165624 0
295 1 22 128.33944165524667 32.33234543292625 0
296 1 23 135.24748948482073 32.31459065237779 0
297 1 18 142.38008435590064 32.095865585763704 0
298 1 16 149.31335954885688 32.28270249158779 0
299 1 16 155.98593067563857 32.2236030805821 0
300 1 16 163.05990556258325 32.105111093536074 0
301 1 25 -3.3199169771812853 36.01491050652591 0
302 1 15 3.821980759308592 36.3288978281397 0
303 1 14 10.658979808140627 36.055656302713075 0
304 1 13 17.559932677714368 36.37037424017242 0
305 1 12 24.412656298376707 36.045984966916485 0
306 1 21 31.47252462131327 36.18185204812814 0
307 1 15 38.38234634675603 36.016008960880605 0
308 1 15 45.42952740553946 36.20908006505721 0
309 1 15 52.13141539755692 36.02589722658659 0
310 1 15 58.92287188916765 36.35436185487991 0
311 1 15 66.14377694907236 36.318189799632485 0
312 1 15 72.81482310088593 36.261038934787955 0
313 1 15 79.82970735358384 36.088621023169466 0
314 1 15 86.7350131671392 36.210867788165515 0
315 1 21 93.63376167583105 36.39996562649203 0
316 1 12 100.68508227132477 36.07055997774893 0
317 1 13 107.76356817934848 36.11000611569115 0
318 1 14 114.41498803833953 36.00635374657213 0
319 1 15 121.33173626269591 36.2204506333899 0
320 1 4 128.29844476990394 36.24435552842479 0
321 1 3 135.37881174464465 36.275093748359296 0
322 1 16 142.19519096036572 36.047657821666995 0
323 1 17 149.20724435758544 36.14566839236879 0
324 1 17 156.0387263686169 36.108960285339535 0
325 1 17 162.84047512200195 36.34053065819688 0
326 1 22 0.28424063323289234 38.16763751767612 0
327 1 15 7.324026150798295 38.306923383971885 0
328 1 21 14.211455525743572 38.38951317846861 0
329 1 12 21.052547091855534 38.33914869615471 0
330 1 13 27.907541232041815 38.376837477287246 0
331 1 14 34.91913715363665 38.15689637752164 0
332 1 15 41.73432729011805 38.16907747215849 0
333 1 15 48.82268590528738 38.07609190579512 0
334 1 15 55.753176228264394 38.06230944385824 0
335 1 15 62.402455279253914 38.039916105046004 0
336 1 15 69.345025384691 38.34825406339608 0
337 1 15 76.59488019042773 38.207849604265085 0
338 1 15 83.26100102926294 38.07003380532976 0
339 1 14 90.21778867526702 38.04265430566159 0
340 1 13 97.2868783444533 38.221996652537 0
341 1 12 103.95118258544908 38.26850057667445 0
342 1 21 111.14355580336414 38.13187189736446 0
343 1 15 118.13942767382149 38.288557544327595 0
344 1 22 124.7535882398818 38.15623536074525 0
345 1 23 131.94224265128932 38.39330830634086 0
346 1 18 138.8190814122501 38.38995944725184 0
347 1 17 145.61958488783665 38.20982770398927 0
348 1 17 152.4231270643051 38.03820588178109 0
349 1 17 159.4789840079484 38.28538107188432 0
350 1 17 166.28833536985763 38.2933226997376 0
351 1 4 0.023458799784773412 42.03840243552387 0
352 1 15 6.959637719467119 42.16483498534171 0
353 1 14 14.160420409567697 42.089575294059756 0
354 1 13 21.029381077536716 42.06838889939904 0
355 1 12 27.965996283195523 42.18543576239108 0
356 1 21 34.8504586912418 42.007080053646455 0
357 1 14 41.92488813541134 42.281297619418055 0
358 1 14 48.609824155328845 42.32272583277011 0
359 1 14 55.81331023903117 42.138052860050124 0
360 1 14 62.640189981550634 42.38175079730597 0
361 1 14 69.56462786435262 42.15474779069764 0
362 1 14 76.39968487728821 42.17912057647271 0
363 1 14 83.17563568171994 42.227795253225075 0
364 1 21 90.23160596147903 42.39479225731004 0
365 1 12 97.15125909118622 42.24064309863957 0
366 1 13 104.21180329103449 42.00439129272967 0
367 1 14 110.92549605268795 42.01784583957044 0
368 1 15 118.11440660559744 42.027120491812546 0
369 1 4 124.85083117686635 42.04557960534154 0
370 1 3 131.68855664800904 42.37943965317002 0
371 1 16 138.79097173438737 42.31600544084402 0
372 1 17 145.79972499360662 42.25769154831713 0
373 1 16 152.5751391821578 42.04382826654194 0
374 1 16 159.35866686725737 42.30585291018307 0
375 1 17 166.47172583155705 42.250715099178116 0
376 1 6 -3.1351534090550137 44.225826379691526 0
377 1 22 3.8541011251733064 44.08885514081318 0
378 1 15 10.735724286091125 44.05267973723053 0
379 1 21 17.666712928377418 44.2078408167356 0
380 1 12 24.369892602535117 44.10048171861661 0
381 1 13 31.41392077519399 44.04396693917921 0
382 1 21 38.33239534307201 44.07635020457849 0
383 1 21 45.1154196170747 44.130647730883645 0
384 1 21 52.0830693675618 44.19159341117702 0
385 1 21 58.94877497599113 44.02867882686623 0
386 1 21 65.90286958944203 44.34029565609457 0
387 1 21 72.78570369012391 44.06215157046983 0
388 1 21 79.79936920705511 44.05689010670315 0
389 1 21 86.94088194510961 44.27342489612236 0
390 1 13 93.72365858318874 44.07256861077347 0
391 1 12 100.85506360363836 44.04367991294041 0
392 1 21 107.73615615318775 44.038677090953016 0
393 1 15 114.61111083389942 44.144414402010085 0
394 1 22 121.41007707132499 44.397676165889536 0
395 1 23 128.5412410760689 44.2493751645624 0
396 1 18 135.34546666207996 44.267186189946024 0
397 1 17 142.22879937391642 44.28834923008194 0
398 1 16 149.29651926677525 44.11958833887523 0
399 1 24 156.0084414512643 44.19625411940266 0
400 1 16 162.88352585314266 44.08776219955103 0
401 1 26 -3.292080875267414 48.010347176818975 0
402 1 4 3.820260636101978 48.17855407881932 0
403 1 15 10.671567003485663 48.15613999465801 0
404 1 14 17.675291104571034 48.2018629023943 0
405 1 13 24.399613116052738 48.18518903874628 0
406 1 12 31.423989865700026 48.17146460798498 0
407 1 20 38.28728650849115 48.24502165400691 0
408 1 20 45.087123973722186 48.34649964917945 0
409 1 20 52.30897056082189 48.26087365585368 0
410 1 20 58.962024447230974 48.29834318190975 0
411 1 20 65.9945737507318 48.226770896359994 0
412 1 20 73.09279367495603 48.28098230319387 0
413 1 20 80.05256320309836 48.18938617237875 0
414 1 20 86.91419273259244 48.354078454808466 0
415 1 12 93.80229318786132 48.01946283590039 0
416 1 13 100.60477384372933 48.340698887294145 0
417 1 14 107.47696576672955 48.06352258978578 0
418 1 15 114.47648620967995 48.088650556866895 0
419 1 4 121.4070370799728 48.241814408374836 0
420 1 3 128.50267931804623 48.25845482440484 0
421 1 16 135.3508466619541 48.00543550898103 0
422 1 17 142.41147969967875 48.38755471724638 0
423 1 18 149.09865852166413 48.24145742600959 0
424 1 19 156.08802644919047 48.28274965570856 0
425 1 18 162.83726512693258 48.19448475062225 0
426 1 23 0.3353777083383962 50.337897844227676 0
427 1 22 7.2863024590421945 50.19318735886913 0
428 1 15 14.068390015509395 50.33887015813623 0
429 1 21 21.051694365671146 50.12987250118045 0
430 1 12 27.83717585841367 50.38990582988511 0
431 1 12 34.95230194969743 50.08151694567737 0
432 1 12 41.63812952898277 50.061481706515025 0
433 1 12 48.664805237756006 50.386080123900115 0
434 1 12 55.59487125403899 50.347721068222135 0
435 1 12 62.415590561645665 50.25123748636752 0
436 1 12 69.47489742527729 50.27205814867529 0
437 1 12 76.35152674362429 50.07966596952856 0
438 1 12 83.4363672643853 50.22586364029708 0
439 1 12 90.15884505579005 50.01542731421314 0
440 1 12 97.31922175376008 50.137315585761044 0
441 1 21 104.1731272362794 50.229280252583386 0
442 1 15 111.16760229446142 50.044001755373564 0
443 1 22 117.83305018752978 50.11017925260212 0
444 1 23 124.76374666508738 50.13386224292711 0
445 1 18 131.63640618360176 50.26405184901871 0
446 1 17 138.72678944834192 50.32928274297562 0
447 1 16 145.56196585818137 50.26110963431789 0
448 1 19 152.7330761501169 50.205363070895075 0
449 1 19 159.49292209167947 50.08006476699927 0
450 1 16 166.43818029694202 50.278063041657305 0
451 1 23 0.3670761422715282 54.12414286314197 0
452 1 22 7.313811222942723 54.20742190164877 0
453 1 15 13.88028767943199 54.0448663945858 0
454 1 21 21.105433292999333 54.32760705637029 0
455 1 12 27.73921259679421 54.12106130884623 0
456 1 12 34.6745048282876 54.14056834810432 0
457 1 12 41.8090733699467 54.04658779831907 0
458 1 12 48.504577515925924 54.22202890841176 0
459 1 12 55.45272996538634 54.09263567910769 0
460 1 12 62.676551850956415 54.24872944786144 0
461 1 12 69.50490013955454 54.23053028086187 0
462 1 12 76.3696962119595 54.30650083134633 0
463 1 12 83.3490106744541 54.15841708135188 0
464 1 12 90.3687458998018 54.19494382185348 0
465 1 12 97.2039639162564 54.281459854320026 0
466 1 21 103.95888400394718 54.225275920807455 0
467 1 15 110.88303850472988 54.083343883223755 0
468 1 22 118.06444691948113 54.21260629181692 0
469 1 23 124.9054226645894 54.173261198284926 0
470 1 18 131.95163344775028 54.153766689966254 0
471 1 17 138.85399476623328 54.04461610386407 0
472 1 16 145.58937975760475 54.14728854997013 0
473 1 19 152.46354789523897 54.18378082297367 0
474 1 19 159.6325652179291 54.26152203422827 0
475 1 16 166.4675483415749 54.04237222709456 0
476 1 26 -3.0958138385380387 56.19674325450913 0
477 1 4 3.8153997013998056 56.046157234527186 0
478 1 15 10.637244026183364 56.11052443805505 0
479 1 14 17.56840250716106 56.06744854317693 0
480 1 13 24.352722651974613 56.2332722466037 0
481 1 12 31.252219683867782 56.15993890324434 0
482 1 20 38.31331636673753 56.28441106023232 0
483 1 20 45.108680219437154 56.338896418289 0
484 1 20 52.1831167716236 56.18433568125606 0
485 1 20 59.06423238890837 56.11207011505149 0
486 1 20 66.16212739962721 56.241459480094015 0
487 1 20 72.81770513393086 56.02329881082891 0
488 1 20 79.85241970954253 56.0028290544515 0
489 1 20 86.62896825366236 56.13117774701187 0
490 1 12 93.54680257797766 56.27550858906627 0
491 1 13 100.74415327771246 56.162539863268705 0
492 1 14 107.64556038008935 56.034687677605625 0
493 1 15 114.71380048624997 56.12795842404551 0
494 1 4 121.40734151177912 56.11895223902167 0
495 1 3 128.52002544144298 56.117468013997204 0
496 1 16 135.28240536259534 56.00333805968735 0
497 1 17 142.1494668874454 56.35137292929687 0
498 1 18 149.19406107115415 56.03322674858011 0
499 1 19 156.12516724861175 56.22559843278254 0
500 1 18 163.04559112561333 56.31864169202907 0
501 1 6 -3.4309500380491995 60.19111346974816 0
502 1 22 3.71447929276076 60.342184914002274 0
503 1 15 10.471091506178368 60.20798694197122 0
504 1 21 17.352842951681026 60.141404114625814 0
505 1 12 24.501363241979707 60.048112144140504 0
506 1 13 31.279687671221776 60.00236313164877 0
507 1 21 38.38335476381181 60.283327920812674 0
508 1 21 45.38993309597885 60.14591532769616 0
509 1 21 52.16122152033142 60.16853542520994 0
510 1 21 59.17845009268564 60.01613167001665 0
511 1 21 66.09460534904674 60.050975985294826 0
512 1 21 72.97947850717729 60.38235856199812 0
513 1 21 79.85423343352447 60.12545114118002 0
514 1 21 86.65520380798763 60.37496736023762 0
515 1 13 93.73395225748601 60.3267981059926 0
516 1 12 100.575250214489 60.361261785147846 0
517 1 21 107.68404228378122 60.2416494474364 0
518 1 15 114.40876309088985 60.21066087466809 0
519 1 22 121.50349159223758 60.241526990253526 0
520 1 23 128.279612959723 60.24562669201179 0
521 1 18 135.2215676713405 60.363024439640725 0
522 1 17 142.34963238872257 60.05290139753616 0
523 1 16 149.3320111276041 60.152259155386666 0
524 1 24 156.27960739071207 60.22458461390285 0
525 1 16 163.05368656579375 60.05112029629029 0
526 1 4 0.06298703199924081 62.155299487746184 0
527 1 15 6.940442608808162 62.10267671860908 0
528 1 14 13.891896167419441 62.339225881043646 0
529 1 13 21.166849631584675 62.28752564143114 0
530 1 12 28.004395214780217 62.13140261048526 0
531 1 21 35.0244053162098 62.101635466523824 0