
14309 atoms
14896 bonds
16659 angles
15 atom types
4 bond types
9 angle types

-5.680607966083864 171.52447279080386 xlo xhi
-2.0 148.0 ylo yhi
-4 4 zlo zhi


Masses

1 0.00025646252506776563
2 0.0005642175551490845
3 0.0004205985411111356
4 0.0005129250501355313
5 0.0008206800802168502
6 0.0007180950701897437
7 0.0006360270621680587
8 0.00082068008021685
9 0.00046163254512197817
10 0.00043085704211384625
11 0.0003077550300813188
12 0.0005129250501355313
13 0.0006155100601626376
14 0.000410340040108425
15 0.00043085704211384625

Pair Coeffs

1 0.40509979849834776 0.44544935907016964 0.5
2 0.40509979849834776 0.44544935907016964 0.5
3 0.40509979849834776 0.44544935907016964 0.5
4 0.40509979849834776 0.44544935907016964 0.5
5 0.40509979849834776 0.44544935907016964 0.5
6 0.40509979849834776 0.44544935907016964 0.5
7 0.40509979849834776 0.44544935907016964 0.5
8 0.40509979849834776 0.44544935907016964 0.5
9 0.40509979849834776 0.44544935907016964 0.5
10 0.40509979849834776 0.44544935907016964 0.5
11 0.40509979849834776 0.44544935907016964 0.5
12 0.40509979849834776 0.44544935907016964 0.5
13 0.40509979849834776 0.44544935907016964 0.5
14 0.40509979849834776 0.44544935907016964 0.5
15 0.40509979849834776 0.44544935907016964 0.5

Bond Coeffs

1 102.58501002710625 0.5
2 123.10201203252751 0.5
3 82.068008021685 0.5
4 86.17140842276925 0.5

Angle Coeffs

1 8.99643548014913 180
2 15.545840509697697 180
3 4.606174965836354 180
4 5.332223294826309 180
5 11.397243775438193 120
6 4.942678449523256 120
7 8.99643548014913 120
8 6.092824028884066 120
9 5.332223294826309 120

Atoms

1 1 1 -3.1748328030656685 0.24166683224834695 0
2 1 2 3.506554737634915 0.2634397723460169 0
3 1 3 10.461778704106996 0.37793371431749034 0
4 1 3 17.494550448675117 0.2797661303794445 0
5 1 2 24.39041877864288 0.34222818587471354 0
6 1 4 31.5424555691464 0.06134588567531934 0
7 1 4 38.475600263851 0.21862256213798845 0
8 1 2 45.09443132385704 0.1860234466164387 0
9 1 3 52.09616048053556 0.06196816506465726 0
10 1 3 59.19656256472829 0.14619986403332574 0
11 1 2 66.1576920707411 0.2656434781330689 0
12 1 4 72.88749798398081 0.387508877343568 0
13 1 4 79.92563478508893 0.31231878956130865 0
14 1 2 86.63703933845711 0.012910900468861099 0
15 1 3 93.80667391336235 0.3713576933829028 0
16 1 3 100.81743800053978 0.3347611761395988 0
17 1 2 107.67959954907018 0.160438745003337 0
18 1 4 114.60922796834754 0.33228271017121264 0
19 1 4 121.52271199140687 0.3338407741251914 0
20 1 2 128.22073613660405 0.14812557218764774 0
21 1 3 135.4153994412046 0.3152384246285731 0
22 1 3 142.39203923801503 0.2544852137039919 0
23 1 2 149.1767353424346 0.24235166885887727 0
24 1 4 156.17197998084964 0.22352657127039732 0
25 1 4 163.17774770291686 0.10715683553165763 0
26 1 5 0.0749049559208292 2.3981555993922115 0
27 1 6 7.2445429819786265 2.2931727394946417 0
28 1 7 14.107333287425472 2.3405929316800638 0
29 1 6 21.015095897251385 2.192924393827477 0
30 1 5 27.8788031809136 2.2626302108445633 0
31 1 6 34.771878549944624 2.1718867157153063 0
32 1 5 41.655260206440616 2.2400592743699197 0
33 1 6 48.77466836401258 2.1239132947199963 0
34 1 7 55.73347872631386 2.1451203334393982 0
35 1 6 62.72519194255234 2.200676847053497 0
36 1 5 69.34446316299399 2.0382214892844996 0
37 1 6 76.332275003091 2.0695299284842132 0
38 1 5 83.3636828894957 2.3486132186190516 0
39 1 6 90.14042656616262 2.050226252666274 0
40 1 7 97.20734258970383 2.0590360982587383 0
41 1 6 103.97452425347446 2.3479094582996662 0
42 1 5 110.93504086581719 2.337588360274336 0
43 1 6 118.00848064188804 2.137953195566276 0
44 1 5 125.00015456867332 2.0988252382518704 0
45 1 6 131.8063234180642 2.073316092743698 0
46 1 7 138.92096342016217 2.309778445358863 0
47 1 6 145.79074506123942 2.3820387364498887 0
48 1 5 152.56690487026952 2.1591856046050237 0
49 1 6 159.54360059254662 2.0845931240536197 0
50 1 5 166.55126722167742 2.300695654938037 0
51 1 6 0.05266430173415087 6.271381950888578 0
52 1 5 7.265851017821838 6.391712762516365 0
53 1 6 14.18532687884351 6.041031598749501 0
54 1 5 20.91446798056491 6.152895382632923 0
55 1 6 28.088037749715607 6.001238992184056 0
56 1 7 34.88208887670747 6.296721730585186 0
57 1 6 41.96760018937459 6.2569514492270395 0
58 1 5 48.74782253349129 6.111717685389207 0
59 1 6 55.66622123487578 6.16882010269829 0
60 1 5 62.46033327137726 6.077303391881476 0
61 1 6 69.62673432007843 6.184858870932194 0
62 1 7 76.47799253818032 6.185747936063774 0
63 1 6 83.17982379196236 6.353476354587818 0
64 1 5 90.34859610017509 6.372287854194387 0
65 1 6 97.02025675355668 6.346459279796998 0
66 1 5 104.27883088653036 6.067538240808722 0
67 1 6 110.85588069470325 6.271599924646416 0
68 1 7 118.1597322730996 6.017056464596696 0
69 1 6 124.99653474418189 6.34996349883532 0
70 1 5 131.88458442181073 6.297589659313074 0
71 1 6 138.74620074073164 6.270772557882436 0
72 1 5 145.6103563028007 6.358082777898442 0
73 1 6 152.80356082182678 6.332515472660356 0
74 1 7 159.48990946005594 6.117696642794965 0
75 1 6 166.31041966987428 6.27396118660815 0
76 1 3 -3.120669419893308 8.1800472222524 0
77 1 5 3.6269158812434372 8.324764192338654 0
78 1 8 10.667737150752414 8.309985274943267 0
79 1 8 17.70527967253577 8.040418490434021 0
80 1 5 24.36722634314502 8.21084666969036 0
81 1 7 31.484500008101882 8.365222656727543 0
82 1 7 38.32900770914768 8.298611462721793 0
83 1 5 45.06150632812858 8.137592147603232 0
84 1 8 52.32382722246671 8.184245041816636 0
85 1 8 59.24076439920237 8.276785650622632 0
86 1 5 65.89775018275691 8.399362882563889 0
87 1 7 73.1155838284566 8.212428913926725 0
88 1 7 79.84842844590159 8.088938065436885 0
89 1 5 86.80956311486091 8.110099446073956 0
90 1 8 93.67077781153233 8.367342985449199 0
91 1 8 100.70951516199247 8.140855098303138 0
92 1 5 107.43632478944104 8.016229055837766 0
93 1 7 114.61737660178544 8.255884446381542 0
94 1 7 121.47168632570488 8.259402218688622 0
95 1 5 128.3603514679476 8.125601896797937 0
96 1 8 135.1994545968596 8.185210318285023 0
97 1 8 142.31580916444048 8.33868539666284 0
98 1 5 149.114480986991 8.09613134887879 0
99 1 7 155.92097179952916 8.27364834366124 0
100 1 7 163.170580600473 8.020238020121479 0
101 1 3 -3.1776046698089933 12.116893489797533 0
102 1 5 3.720429884267922 12.01841869455107 0
103 1 8 10.780856712317982 12.330410609723897 0
104 1 8 17.341154469608327 12.332153010143651 0
105 1 5 24.361300496475856 12.216905760372935 0
106 1 7 31.32806947684205 12.088463238373695 0
107 1 7 38.12641115194264 12.214684145576317 0
108 1 5 45.0648334424451 12.038924170760149 0
109 1 8 52.01576272278454 12.173359918109183 0
110 1 8 59.10401171673615 12.344530289343897 0
111 1 5 66.20617598833904 12.321587429317269 0
112 1 7 72.87600855032626 12.039149302154648 0
113 1 7 79.9699709548228 12.070394353883332 0
114 1 5 86.81470481046779 12.331674373058796 0
115 1 8 93.66066151739373 12.256467294299684 0
116 1 8 100.55780833515475 12.237024745416125 0
117 1 5 107.58408289725921 12.252584482023329 0
118 1 7 114.56628895973351 12.25453472029747 0
119 1 7 121.25345139390514 12.224818283084248 0
120 1 5 128.46783157628323 12.175164039253824 0
121 1 8 135.43292223247116 12.340762188318795 0
122 1 8 142.2814463112305 12.34038112833458 0
123 1 5 149.2061792916643 12.379179761478003 0
124 1 7 155.95469785363096 12.156177183028616 0
125 1 7 162.88121369389165 12.315847348693733 0
126 1 6 0.04859388552824924 14.13488144722331 0
127 1 5 7.106213741735138 14.083362692775918 0
128 1 6 14.141283456907182 14.180531707122968 0
129 1 5 20.933779992511205 14.081031025515852 0
130 1 6 27.93141973723063 14.259798108508063 0
131 1 7 34.80659332803275 14.131631696980099 0
132 1 6 41.68554943610294 14.18145606510961 0
133 1 5 48.75343252018197 14.330401595827043 0
134 1 6 55.51358822061904 14.20760051418023 0
135 1 5 62.42308194580559 14.163904299177549 0
136 1 6 69.29125245043416 14.320226100313496 0
137 1 7 76.44298336501348 14.09689691943457 0
138 1 6 83.14730609604034 14.093907871297677 0
139 1 5 90.2242455689205 14.334766300841295 0
140 1 6 97.10357344070364 14.27573397376769 0
141 1 5 104.31254618416611 14.205840184631585 0
142 1 6 111.06340600465539 14.10749646612325 0
143 1 7 118.06136840493693 14.130560588389523 0
144 1 6 124.73395728720641 14.308392579089835 0
145 1 5 131.78194185298796 14.006595499897946 0
146 1 6 138.91279404561953 14.322109603397509 0
147 1 5 145.679808205995 14.19538316223212 0
148 1 6 152.7884475843153 14.271003847966597 0
149 1 7 159.362162751885 14.162974252567096 0
150 1 6 166.61812697099154 14.207741113420152 0
151 1 5 0.364795143645948 18.385603205956794 0
152 1 6 7.042301831160547 18.018273978256925 0
153 1 7 14.086789708500167 18.11102330377226 0
154 1 6 21.06364738768713 18.276911556961117 0
155 1 5 27.817606396407207 18.321681151249933 0
156 1 6 34.735607445637896 18.025054008022813 0
157 1 5 41.892961804485694 18.379689236621953 0
158 1 6 48.8616694496021 18.226211896009474 0
159 1 7 55.547120897118845 18.115321204217892 0
160 1 6 62.420791975622855 18.093412989646332 0
161 1 5 69.32855525341027 18.344882759993585 0
162 1 6 76.48784182546747 18.1368207071028 0
163 1 5 83.43584550156757 18.381134568206058 0
164 1 6 90.27209154281647 18.39788695611447 0
165 1 7 97.34357250238152 18.033003148120628 0
166 1 6 104.31939756869917 18.167934045115135 0
167 1 5 111.07168009603559 18.104787400663426 0
168 1 6 117.9309256685043 18.354409277177858 0
169 1 5 124.93416914129757 18.077089803171496 0
170 1 6 131.73844855039766 18.164734720050024 0
171 1 7 138.87501718186996 18.02893484008083 0
172 1 6 145.86917049089035 18.285959910736263 0
173 1 5 152.73173391780372 18.3792778362056 0
174 1 6 159.5873391837229 18.01455200508296 0
175 1 5 166.38713690105905 18.369240806249497 0
176 1 2 -3.337352641931825 20.35766406057299 0
177 1 5 3.7655578554782343 20.074198327183552 0
178 1 7 10.730723288322976 20.362951170181734 0
179 1 7 17.530473520225357 20.167623569002778 0
180 1 5 24.584543773255753 20.178662789225804 0
181 1 8 31.575433171169802 20.120453758961254 0
182 1 8 38.34076526720546 20.255295823783307 0
183 1 5 45.29430177463021 20.209866856121604 0
184 1 7 52.125055580933214 20.005467808763697 0
185 1 7 58.9648728024545 20.160548280587623 0
186 1 5 65.97996708150193 20.292126647642135 0
187 1 8 73.11834407399186 20.182920472814775 0
188 1 8 79.95187979451204 20.399558181802544 0
189 1 5 86.75836319769954 20.2105737159054 0
190 1 7 93.59192299946808 20.204178336933133 0
191 1 7 100.77571370045011 20.337756917327535 0
192 1 5 107.65080123652719 20.299257629896466 0
193 1 8 114.68576283087967 20.350057707060465 0
194 1 8 121.40458276063826 20.208960538673256 0
195 1 5 128.35965749813616 20.114863174288637 0
196 1 7 135.21657360554087 20.256300911480345 0
197 1 7 142.22848904630274 20.040689760258136 0
198 1 5 149.20030300859392 20.001952953106787 0
199 1 8 156.22065860186802 20.387315073631026 0
200 1 8 163.1547149140051 20.051045545252382 0
201 1 2 -3.19822527151047 24.245753604001525 0
202 1 5 3.6836899311901345 24.365003712778908 0
203 1 7 10.626686390380392 24.08266931819149 0
204 1 7 17.571197688229308 24.336495565728104 0
205 1 5 24.387533119352522 24.198650815158476 0
206 1 8 31.303117231211914 24.09755991377454 0
207 1 8 38.18541982062391 24.23149998655212 0
208 1 5 45.17199349651776 24.275141820737034 0
209 1 7 52.14167342949365 24.033284116066504 0
210 1 7 59.1305012912431 24.048344776907296 0
211 1 5 66.0707031016301 24.013237834222835 0
212 1 8 73.09155928131457 24.031928440260653 0
213 1 8 79.75661089005752 24.268473108416735 0
214 1 5 86.83453551171213 24.25867918825421 0
215 1 7 93.6314555938775 24.14038565413599 0
216 1 7 100.82773067569484 24.275773512286275 0
217 1 5 107.55486262204387 24.073964211897533 0
218 1 8 114.34443859570516 24.32139431870331 0
219 1 8 121.29469717788494 24.284462727674597 0
220 1 5 128.34020514881715 24.371382092333448 0
221 1 7 135.35607917624048 24.011037166769295 0
222 1 7 142.04720168738473 24.354412921630505 0
223 1 5 149.33668940510046 24.18607202370766 0
224 1 8 156.07117829225726 24.046344155005126 0
225 1 8 163.14079411560994 24.128780343002482 0
226 1 5 0.12755227022811924 26.137616295564552 0
227 1 6 7.260563389269323 26.086666806086047 0
228 1 7 13.988204877836354 26.35551519203573 0
229 1 6 21.05230958411856 26.39557023819078 0
230 1 5 27.793266385882326 26.294829140358726 0
231 1 6 34.97013998278708 26.07443820397537 0
232 1 5 41.92206679078416 26.131059145550715 0
233 1 6 48.73528611773932 26.25157460261097 0
234 1 7 55.7573745159949 26.142517256390096 0
235 1 6 62.643302564318596 26.128907267751615 0
236 1 5 69.43441945277416 26.013243021899566 0
237 1 6 76.39468792359057 26.043095744742832 0
238 1 5 83.3049039216194 26.272436872461146 0
239 1 6 90.08538958858624 26.284663187253358 0
240 1 7 97.31508895034655 26.399341663669286 0
241 1 6 103.99542170528503 26.3294224635609 0
242 1 5 111.01000162459107 26.391223494336767 0
243 1 6 117.79443212569309 26.18569623380119 0
244 1 5 125.07003697362143 26.064729048621466 0
245 1 6 131.97455781890963 26.139150707236883 0
246 1 7 138.77938929004978 26.06913335760171 0
247 1 6 145.78328970313345 26.336376168725057 0
248 1 5 152.49742732326146 26.370702580317428 0
249 1 6 159.44162473985295 26.175749834745137 0
250 1 5 166.36068261136802 26.11651451759611 0
251 1 6 0.06542990008141528 30.315523041624196 0
252 1 5 7.1628736285987795 30.02424063169822 0
253 1 6 13.883635709978835 30.044168959625406 0
254 1 5 21.00096594733239 30.388603886025855 0
255 1 6 28.022585634185802 30.284419094802292 0
256 1 7 34.85683678228932 30.18956956161077 0
257 1 6 41.77085396786628 30.009184333083557 0
258 1 5 48.62226267129369 30.23681598786751 0
259 1 6 55.74037413049699 30.14912134734088 0
260 1 5 62.554106643434075 30.33109766266165 0
261 1 6 69.40389826533841 30.10026500483385 0
262 1 7 76.42144280147032 30.28839468341521 0
263 1 6 83.18008565033738 30.33156451885201 0
264 1 5 90.4200595035425 30.115023264041156 0
265 1 6 97.24972344914512 30.226087515005084 0
266 1 5 104.2621128476063 30.28996747483414 0
267 1 6 111.12428633459614 30.390686309251603 0
268 1 7 117.98905501034056 30.348896103900877 0
269 1 6 124.97732670967656 30.22355099669674 0
270 1 5 131.6686780164024 30.271730127260167 0
271 1 6 138.89709779811105 30.02300974480925 0
272 1 5 145.86072977370733 30.132632548037858 0
273 1 6 152.59182287959473 30.182643082763306 0
274 1 7 159.74058196175625 30.18995079673943 0
275 1 6 166.3755405038868 30.371523286601995 0
276 1 3 -3.3395758650639666 32.02531262692319 0
277 1 5 3.489125253529638 32.30464765975342 0
278 1 8 10.404382297650292 32.29070716474762 0
279 1 8 17.70826966491066 32.18466121975446 0
280 1 5 24.27412473253753 32.00653509879266 0
281 1 7 31.179543853869824 32.07523605512938 0
282 1 7 38.39865665093968 32.3841203766598 0
283 1 5 45.3183389789036 32.04761423733436 0
284 1 8 51.98690698474944 32.127570896501894 0
285 1 8 59.23057921830087 32.385413848722195 0
286 1 5 65.83706435281417 32.25630693016435 0
287 1 7 73.05807479769072 32.08087326801743 0
288 1 7 79.85638989851434 32.12449154376146 0
289 1 5 86.93306124344454 32.119232528033805 0
290 1 8 93.86819084498826 32.07328149992145 0
291 1 8 100.51486659017229 32.34675058164042 0
292 1 5 107.75673677855895 32.217325853015964 0
293 1 7 114.43740061728353 32.06903869502568 0
294 1 7 121.39105337041717 32.01668201375346 0
295 1 5 128.45065811486512 32.30585637360514 0
296 1 8 135.10049261796632 32.13500080473666 0
297 1 8 142.1076366905585 32.22776658205418 0
298 1 5 148.99180261200144 32.222557663327436 0
299 1 7 156.1013034883334 32.071837871891304 0
300 1 7 163.2007717996364 32.05511457094704 0
301 1 3 -3.4631613281859996 36.10589356065967 0
302 1 5 3.754941176775495 36.09127834343565 0
303 1 8 10.675511747174223 36.34159615048166 0
304 1 8 17.443351664935662 36.02078619582289 0
305 1 5 24.311454707969528 36.17431375341403 0
306 1 7 31.47913931401262 36.24095692637686 0
307 1 7 38.37615807217708 36.36778329052885 0
308 1 5 45.07430575772838 36.22635917600184 0
309 1 8 52.30716295845524 36.11162099337911 0
310 1 8 58.94787703097852 36.37103634041511 0
311 1 5 66.05137684029047 36.16486394670536 0
312 1 7 72.9758664716918 36.12875467116714 0
313 1 7 80.01812713436205 36.228935688194355 0
314 1 5 86.60915993552413 36.38033383386608 0
315 1 8 93.558826981467 36.172700305700644 0
316 1 8 100.57596853782503 36.09875153319972 0
317 1 5 107.65607455449933 36.33054282284111 0
318 1 7 114.61459691250361 36.09670733377792 0
319 1 7 121.37013187822184 36.36329011371279 0
320 1 5 128.17928105369958 36.165916376217325 0
321 1 8 135.303854782576 36.12311438157603 0
322 1 8 142.32070596259675 36.02940607484172 0
323 1 5 149.1244107337442 36.02870681951174 0
324 1 7 156.06055526278266 36.145754158512965 0
325 1 7 163.12779971344762 36.34337772895766 0
326 1 6 0.20061548339438914 38.170642438688155 0
327 1 5 6.994751217214787 38.29625300955501 0
328 1 6 13.982861827279454 38.16581718214279 0
329 1 5 20.786258771345096 38.04560717554297 0
330 1 6 27.963213495735424 38.091630643041626 0
331 1 7 34.914039245775975 38.18063654429302 0
332 1 6 41.84696018554429 38.11607388407937 0
333 1 5 48.783769259359026 38.35173587254042 0
334 1 6 55.42969650504653 38.05009637455154 0
335 1 5 62.53924461631949 38.0238652182575 0
336 1 6 69.35995489875916 38.01399572401409 0
337 1 7 76.26316529594612 38.36758052376926 0
338 1 6 83.20283156169432 38.34041473147764 0
339 1 5 90.1748167740581 38.04551989746425 0
340 1 6 97.06065333258688 38.215443130768755 0
341 1 5 104.29517828686626 38.33736860578966 0
342 1 6 111.09419921317986 38.22395651811897 0
343 1 7 117.78319823071718 38.25071851351184 0
344 1 6 125.09087792157435 38.23448920506273 0
345 1 5 131.7099814199241 38.35014204050155 0
346 1 6 138.88811484207193 38.18917911727847 0
347 1 5 145.8268491929726 38.24945331195796 0
348 1 6 152.52830615423827 38.012619195183404 0
349 1 7 159.39573881625705 38.017328110521376 0
350 1 6 166.52180069364692 38.287207430826676 0
351 1 5 0.1916049948077399 42.01088873317655 0
352 1 6 7.21804219918322 42.280991451401896 0
353 1 7 14.173180978927281 42.0654948779473 0
354 1 6 20.88202552059761 42.34199983420228 0
355 1 5 28.00476478694244 42.20895979565065 0
356 1 6 34.69255162661198 42.00886698545139 0
357 1 5 41.80583453644561 42.33394940018014 0
358 1 6 48.61209120103994 42.22884577027585 0
359 1 7 55.63640607834949 42.2266236756217 0
360 1 6 62.70247704671242 42.32596492645397 0
361 1 5 69.54653139778226 42.24292787135095 0
362 1 6 76.49047532857597 42.209052167709444 0
363 1 5 83.43503265899342 42.2997596286648 0
364 1 6 90.2034934450435 42.12894676315279 0
365 1 7 97.22437109605113 42.05335130259489 0
366 1 6 104.25624461126897 42.132827458510484 0
367 1 5 111.18362246910195 42.37620617438115 0
368 1 6 118.0311853684596 42.11520150420444 0
369 1 5 124.72549229635618 42.04646609816656 0
370 1 6 131.8989480655551 42.2782062197472 0
371 1 7 138.93163092127466 42.37616208789193 0
372 1 6 145.8868101640821 42.01424930202425 0
373 1 5 152.7169584398005 42.081568512339 0
374 1 6 159.49413394713255 42.16615191710486 0
375 1 5 166.39933930601944 42.09757344088279 0
376 1 2 -3.259621622328531 44.11559189375382 0
377 1 5 3.6678154337330198 44.37709041337202 0
378 1 7 10.626478667718075 44.27212772831307 0
379 1 7 17.47828687227093 44.1423613239492 0
380 1 5 24.344082007527412 44.21457274033145 0
381 1 8 31.25711978792494 44.05964388118614 0
382 1 8 38.12660127863805 44.29553478391156 0
383 1 5 45.04371643291561 44.042995066226574 0
384 1 7 52.12512579295402 44.32763223225431 0
385 1 7 58.917899612979234 44.31004993101431 0
386 1 5 65.86615473392192 44.07019085945223 0
387 1 8 72.78154964471145 44.16573680107568 0
388 1 8 79.71253322803531 44.33437719069718 0
389 1 5 86.65722518038046 44.003405380322405 0
390 1 7 93.81375169936614 44.24117417190239 0
391 1 7 100.53860243349493 44.30599041653452 0
392 1 5 107.50324047162358 44.3686193797346 0
393 1 8 114.63498532250607 44.375731739837946 0
394 1 8 121.34328870147468 44.07376169060979 0
395 1 5 128.41072666303955 44.07731907060959 0
396 1 7 135.16239545011194 44.064996631316234 0
397 1 7 142.1582640810461 44.205361011532624 0
398 1 5 149.03320576735726 44.38405585399057 0
399 1 8 156.25378149249715 44.26160039907406 0
400 1 8 162.90063257035274 44.3302701997735 0
401 1 2 -3.0946512756145417 48.15889074839939 0
402 1 5 3.609663799591559 48.12854067256867 0
403 1 7 10.758778032194682 48.01907399641393 0
404 1 7 17.52027255417605 48.387623306187464 0
405 1 5 24.363996631651336 48.16383748028279 0
406 1 8 31.502688906990883 48.29409958868977 0
407 1 8 38.50331947596978 48.114018419657874 0
408 1 5 45.11211040916012 48.088742443088 0
409 1 7 52.332909623290305 48.344087841714746 0
410 1 7 58.94331998445927 48.27910515793607 0
411 1 5 65.98429299877836 48.20167844742617 0
412 1 8 72.94976118439 48.04578800268575 0
413 1 8 79.68280993373214 48.19556265985337 0
414 1 5 86.76127341686363 48.13081760076154 0
415 1 7 93.67888002567136 48.337991742848736 0
416 1 7 100.68816796191086 48.36178180579902 0
417 1 5 107.59846608791446 48.10977377531911 0
418 1 8 114.59251636245885 48.38019631755111 0
419 1 8 121.40062228464605 48.02681693674087 0
420 1 5 128.56671681418788 48.27323485711694 0
421 1 7 135.4702994045649 48.010592247943485 0
422 1 7 142.33795043906477 48.31106031551194 0
423 1 5 149.14769356115085 48.02031934618425 0
424 1 8 156.2227008248765 48.00615483054912 0
425 1 8 162.98620209614654 48.31598896196911 0
426 1 5 0.36934227503029615 50.35120654812573 0
427 1 6 7.016613885450506 50.05001749815251 0
428 1 7 13.90492591064673 50.22199562439316 0
429 1 6 21.057424531664214 50.33119694970521 0
430 1 5 27.77908385708075 50.2996514480978 0
431 1 6 34.86221265756522 50.19965955719724 0
432 1 5 41.71147033119924 50.09696055048621 0
433 1 6 48.73221116878769 50.34776684119089 0
434 1 7 55.774807592801054 50.08015992705476 0
435 1 6 62.54696304326775 50.327350602440326 0
436 1 5 69.57770665558878 50.1835109035077 0
437 1 6 76.30408067984989 50.34975860502822 0
438 1 5 83.2851487417604 50.28870995264966 0
439 1 6 90.33533938659859 50.05657980753257 0
440 1 7 97.22983087515522 50.16805802836761 0
441 1 6 103.99338909372858 50.21990817362145 0
442 1 5 110.91577139563388 50.34053859608317 0
443 1 6 117.88575411978746 50.331055794716654 0
444 1 5 124.76065155426669 50.10056920464535 0
445 1 6 131.9441804265306 50.279402397114616 0
446 1 7 138.8332220124044 50.16506337242723 0
447 1 6 145.61064190453493 50.29130036595579 0
448 1 5 152.4655355080059 50.03061675399111 0
449 1 6 159.54634499009612 50.151579032052936 0
450 1 5 166.64674606044017 50.378703773993344 0
451 1 6 0.27555528888649483 54.053593007759986 0
452 1 5 7.0358073340283624 54.32401730126749 0
453 1 6 14.23394133445719 54.05069689864582 0
454 1 5 20.95886163526603 54.16319066550779 0
455 1 6 28.005348849940564 54.38068937338062 0
456 1 7 34.932650937012866 54.21670486098529 0
457 1 6 41.78575879474143 54.078884384604336 0
458 1 5 48.8962289833721 54.189029380255775 0
459 1 6 55.667890660570606 54.17137461342138 0
460 1 5 62.681948765040445 54.134590756532695 0
461 1 6 69.33346819711983 54.01022942335082 0
462 1 7 76.37278662147529 54.37134912404199 0
463 1 6 83.19124239429567 54.20559498979701 0
464 1 5 90.1452854957465 54.35336990923969 0
465 1 6 97.28745446191586 54.29690042804241 0
466 1 5 104.21249819687559 54.362801524991944 0
467 1 6 111.02640400259908 54.15120872374569 0
468 1 7 118.05609405857167 54.0034419721684 0
469 1 6 124.81828984613745 54.181164482019454 0
470 1 5 131.89175707769948 54.33601497315503 0
471 1 6 138.8020581685918 54.187645920578795 0
472 1 5 145.85763668251838 54.02668809040842 0
473 1 6 152.76753835083005 54.39543353684576 0
474 1 7 159.47064482962648 54.12379395626829 0
475 1 6 166.45220514209055 54.107388763700186 0
476 1 3 -3.293931130961566 56.19725776544563 0
477 1 5 3.721738945047874 56.11691149030716 0
478 1 8 10.604815465222702 56.347079427045614 0
479 1 8 17.708001660927614 56.36958434525818 0
480 1 5 24.375306374868014 56.26647919932696 0
481 1 7 31.474619247147643 56.04264276384448 0
482 1 7 38.32822356950603 56.2460888043044 0
483 1 5 45.1622465203095 56.05947403283919 0
484 1 8 52.163417864526565 56.1852813076238 0
485 1 8 58.906068908720236 56.276063694316015 0
486 1 5 65.87156580585486 56.21160889924303 0
487 1 7 72.75958988903024 56.3312045590019 0
488 1 7 79.81283615258182 56.19596720255865 0
489 1 5 86.71901218259806 56.33266582239541 0
490 1 8 93.79640700547733 56.0908179274007 0
491 1 8 100.79128698996678 56.19548212712592 0
492 1 5 107.55868275913093 56.185776713538914 0
493 1 7 114.3904874005423 56.35793033384228 0
494 1 7 121.31850561931842 56.331222850235434 0
495 1 5 128.45951387545352 56.17484046101401 0
496 1 8 135.1893798083029 56.07700629980721 0
497 1 8 142.39761544713522 56.21188237931422 0
498 1 5 149.3006275185778 56.3236667260588 0
499 1 7 155.91913852703624 56.3337708729852 0
500 1 7 163.02869419034218 56.075444181352964 0
501 1 3 -3.249764859568925 60.008180098060905 0
502 1 5 3.710241341200788 60.115434850586375 0
503 1 8 10.667461693133227 60.23113910499594 0
504 1 8 17.32975026731941 60.01660056463682 0
505 1 5 24.40867139847535 60.047163897142916 0
506 1 7 31.437504933885712 60.242361958148834 0
507 1 7 38.34413118200847 60.1710110003785 0
508 1 5 45.18617855689811 60.142095181334916 0
509 1 8 52.28208246780039 60.39895687140672 0
510 1 8 58.95898063552952 60.33076006455935 0
511 1 5 66.14187524098848 60.37516241566174 0
512 1 7 72.91084235717828 60.266467605365456 0
513 1 7 80.04154410779638 60.2696045093666 0
514 1 5 86.95597758442665 60.12879443472632 0
515 1 8 93.62447997507702 60.0915568063042 0
516 1 8 100.85592462742692 60.18581003251141 0
517 1 5 107.48593001383377 60.078485942765894 0
518 1 7 114.40359002832432 60.26707851725009 0
519 1 7 121.44568869021289 60.30400328595342 0
520 1 5 128.41175347585542 60.32330589111061 0
521 1 8 135.38404152806766 60.21351385643249 0
522 1 8 142.25085547932042 60.01958079724962 0
523 1 5 149.01367611492185 60.35210182360039 0
524 1 7 156.03211105636527 60.32691298179582 0
525 1 7 163.1305036653704 60.33071985672326 0
526 1 6 0.2405792304390961 62.00775300624177 0
527 1 5 7.022955347951769 62.20692585337277 0
528 1 6 14.207483628492252 62.12274660683103 0
529 1 5 21.174306135556147 62.18349488811183 0
530 1 6 27.73487990261141 62.29117506374146 0
531 1 7 34.699924508112055 62.183377131945115 0
532 1 6 41.743410124848936 62.27322967365571 0
533 1 5 48.53261230146981 62.35920791540567 0
534 1 6 55.57586806906038 62.281302639597364 0
535 1 5 62.57451580369358 62.180404309820766 0
536 1 6 69.66772594859478 62.19732254408299 0
537 1 7 76.56323929792177 62.23106622580188 0
538 1 6 83.39354498897558 62.34366586390725 0
539 1 5 90.16774925173587 62.20400942382304 0
540 1 6 97.34397723408334 62.02984323927201 0
541 1 5 104.10761214293761 62.39647958581507 0
542 1 6 110.86889539255185 62.39162847156879 0
543 1 7 117.98229595802158 62.34795924632966 0
544 1 6 125.08123225520532 62.394439131927065 0
545 1 5 131.73294623327703 62.28977823602512 0
546 1 6 138.89228727854436 62.2199421647058 0
547 1 5 145.70028132799138 62.296726939933855 0
548 1 6 152.55913216812502 62.30798961743834 0
549 1 7 159.619839519392 62.144120235492615 0
550 1 6 166.2955330609035 62.24795034975612 0
551 1 5 0.3719216092624482 66.14853999619044 0
552 1 6 6.959290446108471 66.25199357972986 0
553 1 7 14.136362364915321 66.3357582982027 0
554 1 6 20.912324866884013 66.33684327979437 0
555 1 5 27.945793809333388 66.33949430533234 0
556 1 6 35.004532481842 66.05239895047276 0
557 1 5 41.66789271421755 66.13198927540448 0
558 1 6 48.824542046203 66.11331139948291 0
559 1 7 55.451381136119764 66.31004552387317 0
560 1 6 62.42705799507715 66.22608010841864 0
561 1 5 69.32502015624587 66.02126403656465 0
562 1 6 76.60215495353928 66.06104399929636 0
563 1 5 83.17345032917328 66.2932177108205 0
564 1 6 90.08197980609872 66.38728556859822 0
565 1 7 97.00951034520085 66.367620065318 0
566 1 6 104.16651207520582 66.15746785706406 0
567 1 5 111.1368958817064 66.11570309430725 0
568 1 6 118.03622079142126 66.1919249350376 0
569 1 5 124.81853207843635 66.21919138557926 0
570 1 6 131.86563054708813 66.24271379558273 0
571 1 7 138.6545509270918 66.08467626944639 0
572 1 6 145.64187938552462 66.30031010839166 0
573 1 5 152.61196361926437 66.16569044685768 0
574 1 6 159.3578432857225 66.13913290815185 0
575 1 5 166.5001472344029 66.12713520902703 0
576 1 2 -3.202222694777387 68.28708571742781 0
577 1 5 3.630196566980499 68.09576697354872 0
578 1 7 10.392349941378837 68.38028267093789 0
579 1 7 17.337152850859226 68.27208309493358 0
580 1 5 24.302100920853217 68.12730117642101 0
581 1 8 31.224714148274355 68.22009265046516 0
582 1 8 38.3608090618606 68.30964320694058 0
583 1 5 45.403429295356574 68.09569459655468 0
584 1 7 51.97553078719313 68.28059343641962 0
585 1 7 58.93799116148393 68.02016327672276 0
586 1 5 65.98312131762619 68.16549592531904 0
587 1 8 73.12840833540837 68.35106700224046 0
588 1 8 79.98781384296633 68.3778464348599 0
589 1 5 86.84643523911626 68.0018813182403 0
590 1 7 93.90826689127799 68.19478968221765 0
591 1 7 100.51486014434212 68.02547551379983 0
592 1 5 107.40564592961756 68.33138983634984 0
593 1 8 114.68130013980294 68.29140525636747 0
594 1 8 121.37077300044557 68.36888572965884 0
595 1 5 128.33105977238816 68.20717806950395 0