
14309 atoms
14896 bonds
16659 angles
24 atom types
7 bond types
18 angle types

-5.680607966083864 171.52447279080386 xlo xhi
-2.0 148.0 ylo yhi
-4 4 zlo zhi


Masses

1 0.00023524457265587163
2 0.00041167800214777535
3 0.0005489040028637005
4 0.0004606872881177486
5 0.0005096965740877218
6 0.00047048914531174326
7 0.0006469225748036469
8 0.0007645448611315828
9 0.0007253374323556042
10 0.0007645448611315827
11 0.0008233560042955507
12 0.0007449411467435935
13 0.0008037522899075613
14 0.0007057337179676149
15 0.0004900928596997325
16 0.0005293002884757112
17 0.0005194984312817165
18 0.00047048914531174326
19 0.00035286685898380744
20 0.0005881114316396791
21 0.0005096965740877218
22 0.00043128171653576463
23 0.0004900928596997325
24 0.0005489040028637005

Pair Coeffs

1 0.40509979849834776 0.44544935907016964 0.5
2 0.40509979849834776 0.44544935907016964 0.5
3 0.40509979849834776 0.44544935907016964 0.5
4 0.40509979849834776 0.44544935907016964 0.5
5 0.40509979849834776 0.44544935907016964 0.5
6 0.40509979849834776 0.44544935907016964 0.5
7 0.40509979849834776 0.44544935907016964 0.5
8 0.40509979849834776 0.44544935907016964 0.5
9 0.40509979849834776 0.44544935907016964 0.5
10 0.40509979849834776 0.44544935907016964 0.5
11 0.40509979849834776 0.44544935907016964 0.5
12 0.40509979849834776 0.44544935907016964 0.5
13 0.40509979849834776 0.44544935907016964 0.5
14 0.40509979849834776 0.44544935907016964 0.5
15 0.40509979849834776 0.44544935907016964 0.5
16 0.40509979849834776 0.44544935907016964 0.5
17 0.40509979849834776 0.44544935907016964 0.5
18 0.40509979849834776 0.44544935907016964 0.5
19 0.40509979849834776 0.44544935907016964 0.5
20 0.40509979849834776 0.44544935907016964 0.5
21 0.40509979849834776 0.44544935907016964 0.5
22 0.40509979849834776 0.44544935907016964 0.5
23 0.40509979849834776 0.44544935907016964 0.5
24 0.40509979849834776 0.44544935907016964 0.5

Bond Coeffs

1 94.09782906234865 0.5
2 70.57337179676149 0.5
3 117.62228632793581 0.5
4 101.93931481754437 0.5
5 86.25634330715293 0.5
6 98.01857193994651 0.5
7 109.78080057274009 0.5

Angle Coeffs

1 6.943166271743229 180
2 2.929148270891675 180
3 13.560871624498496 180
4 8.82762517304391 180
5 5.348005965098518 180
6 7.84772663454774 180
7 11.025490885221886 180
8 4.120120644770709 120
9 10.693910609843215 120
10 6.361100232532589 120
11 11.025490885221886 120
12 8.52059402936647 120
13 6.943166271743229 120
14 9.184082370030731 120
15 6.660753461066579 120
16 8.82762517304391 120
17 9.169081889538388 120
18 7.84772663454774 120

Atoms

1 1 1 -3.332983870393204 0.03545766972453825 0
2 1 2 3.8371552304279932 0.3841041284841198 0
3 1 3 10.70723884158322 0.20403293221962487 0
4 1 4 17.421065502047213 0.34487679071776567 0
5 1 3 24.253133838015323 0.06642656231668985 0
6 1 3 31.574220097479188 0.07652007214082324 0
7 1 5 38.497298870186405 0.04851266079961243 0
8 1 5 45.194239977431366 0.1548252057875752 0
9 1 3 52.04737811688776 0.18129494978045677 0
10 1 3 58.915022626962966 0.22802635190775158 0
11 1 4 65.990346222225 0.12141151170631202 0
12 1 3 72.92083181089109 0.17416825840813888 0
13 1 2 79.84796654623639 0.24320405832197337 0
14 1 6 86.91329665032744 0.2795152633055722 0
15 1 6 93.5905413309051 0.013770947245205134 0
16 1 6 100.7949093133861 0.1633844924497325 0
17 1 6 107.43773343942878 0.09952526161408089 0
18 1 6 114.35870557506011 0.12666736385578123 0
19 1 6 121.62603346184981 0.23703405385188248 0
20 1 2 128.24593930797832 0.1967586273143661 0
21 1 3 135.2492452421161 0.20821788913230377 0
22 1 4 142.2652884558537 0.043674703125518737 0
23 1 3 149.20540264771077 0.19247298777946187 0
24 1 3 156.16007038111655 0.06905921972056221 0
25 1 5 162.9939014895381 0.18363651459178182 0
26 1 7 0.3200494577894205 2.092650432452592 0
27 1 8 7.162899579983122 2.359000263619972 0
28 1 9 13.977931366028036 2.2646192446662083 0
29 1 10 20.797316716854183 2.3826634703211167 0
30 1 11 27.850996227933447 2.0495165423564963 0
31 1 11 34.64213862428762 2.398776985330523 0
32 1 12 41.79564248089055 2.342293656059937 0
33 1 11 48.72170647467613 2.152207431604169 0
34 1 11 55.74188009676534 2.231042938263027 0
35 1 10 62.7246227464025 2.3518290234963466 0
36 1 9 69.33854603337794 2.1584267550821514 0
37 1 8 76.37954810758524 2.250657038417283 0
38 1 7 83.20394108157453 2.20751623980047 0
39 1 8 90.24573198373572 2.1452121700946165 0
40 1 8 97.0961930650275 2.378469810260151 0
41 1 8 104.31339081309861 2.3449788108945318 0
42 1 8 110.8632931648157 2.3688089525151472 0
43 1 8 117.87960749791304 2.0032219658092463 0
44 1 7 124.72608936008619 2.2312163926773225 0
45 1 8 131.818586063134 2.1935674462053347 0
46 1 9 138.58036016958553 2.1576029840110227 0
47 1 10 145.85130489449844 2.3228586922762817 0
48 1 11 152.7611835682656 2.040980734994364 0
49 1 11 159.6678528627106 2.0111741244848598 0
50 1 12 166.42851262527313 2.33163156831505 0
51 1 8 0.14420492455720843 6.24675304268053 0
52 1 7 7.027142230720011 6.317176691316115 0
53 1 13 13.914471281249781 6.339994738750095 0
54 1 14 21.129020026981316 6.272442144929543 0
55 1 11 27.86119210690987 6.30857505657974 0
56 1 11 34.77264554062498 6.1184955804128895 0
57 1 11 41.86724785080496 6.1693342237585505 0
58 1 11 48.64567343190574 6.321016001996815 0
59 1 11 55.68814770074084 6.120375233233595 0
60 1 14 62.43836738514805 6.351180910905981 0
61 1 13 69.56202723201362 6.046643542025673 0
62 1 7 76.4171445464383 6.3696249752438865 0
63 1 8 83.38649343950016 6.048944604461986 0
64 1 13 90.32811126933271 6.307428636825492 0
65 1 13 97.30504026112551 6.209330267717536 0
66 1 13 104.05276852392639 6.0015686696596084 0
67 1 13 111.1752396531908 6.086293955661463 0
68 1 13 117.93602810807126 6.005361688374837 0
69 1 8 124.98558635872206 6.035934787457156 0
70 1 7 131.6685148388417 6.326453298199751 0
71 1 13 138.87038556826073 6.246545350784009 0
72 1 14 145.82182510153334 6.334883671174808 0
73 1 11 152.8070184189222 6.27098470957429 0
74 1 11 159.5671473653989 6.099052538276227 0
75 1 11 166.43187329390943 6.394678682913934 0
76 1 3 -3.362756719000196 8.188646286804635 0
77 1 7 3.4895885577131467 8.292622719856919 0
78 1 8 10.593130261167522 8.226451100486363 0
79 1 9 17.582428933884987 8.301550704415073 0
80 1 10 24.50066444034217 8.329790968058894 0
81 1 11 31.35969448890544 8.14037411031325 0
82 1 11 38.160155924092685 8.353788963022756 0
83 1 11 45.204237056389104 8.177651432465925 0
84 1 11 51.97503339963666 8.27308957181812 0
85 1 10 59.22339504560238 8.339123866026732 0
86 1 9 66.17748480596524 8.248676413633833 0
87 1 8 72.84297488658596 8.018521688535834 0
88 1 7 79.78862443779244 8.06867406836043 0
89 1 13 86.80765220660112 8.14520616888225 0
90 1 9 93.82489645843238 8.375457149674451 0
91 1 9 100.79240658242342 8.226144677469248 0
92 1 9 107.61864564203958 8.104772364443992 0
93 1 9 114.54874073006766 8.380472584314408 0
94 1 13 121.2610176465048 8.125686676654068 0
95 1 7 128.40865963566586 8.140073253973354 0
96 1 8 135.37850920023396 8.230594146157229 0
97 1 9 142.294267656833 8.351120422590085 0
98 1 10 149.0715326188703 8.020093633873302 0
99 1 11 156.13581279680727 8.01694044747679 0
100 1 11 163.01592218113885 8.049800366021552 0
101 1 5 -3.244849632754417 12.178612623766139 0
102 1 8 3.7648722999535167 12.027016367518984 0
103 1 7 10.687591847951776 12.253151274730602 0
104 1 13 17.59207056978059 12.394354779273021 0
105 1 14 24.412111961737814 12.157468668241458 0
106 1 11 31.217316049912313 12.386700756126396 0
107 1 11 38.41291574246278 12.278980495318129 0
108 1 11 45.34689528325887 12.084604678588825 0
109 1 11 52.24160551228931 12.237488299244946 0
110 1 14 59.234131118972925 12.111350671738249 0
111 1 13 66.09849443555869 12.02557907798972 0
112 1 7 72.95394127772687 12.167024556193159 0
113 1 8 80.0494124309877 12.175064717820039 0
114 1 9 86.68598152914674 12.058767335870636 0
115 1 14 93.92003323647035 12.318557145090168 0
116 1 14 100.56541234987792 12.041466849381893 0
117 1 14 107.46318628701583 12.198418785632382 0
118 1 14 114.32539351920735 12.329478315791764 0
119 1 9 121.29697034639511 12.025307848894021 0
120 1 8 128.19121222197114 12.12282047544826 0
121 1 7 135.12010214421835 12.110719182995037 0
122 1 13 142.20997130627327 12.303226464436419 0
123 1 14 149.25575889706423 12.133601442212996 0
124 1 11 156.27566578371574 12.081558527414531 0
125 1 11 163.0861934398684 12.348999981881745 0
126 1 13 0.18930085449462203 14.04877398201842 0
127 1 7 7.303558407922417 14.279631606170906 0
128 1 8 14.216057289803821 14.257025567969496 0
129 1 9 21.169874426604064 14.31779567076996 0
130 1 10 27.730179092349335 14.184592598860654 0
131 1 11 34.89125304177895 14.029956915319229 0
132 1 11 41.832933168642974 14.334738372291564 0
133 1 11 48.507866248112705 14.274633354223077 0
134 1 10 55.68946245858234 14.310599753397087 0
135 1 9 62.48502949613179 14.312048033834227 0
136 1 8 69.31812215627555 14.082654210001598 0
137 1 7 76.54108685477902 14.053640494609647 0
138 1 13 83.15889035858903 14.39299634278581 0
139 1 14 90.14686730898123 14.021799279902458 0
140 1 8 97.010211965457 14.153104732250835 0
141 1 8 104.11740212567041 14.152334238584617 0
142 1 8 111.23088609471564 14.10830911052392 0
143 1 14 118.1310363873666 14.040721407767844 0
144 1 13 124.85570415511225 14.122468257336662 0
145 1 7 131.65596387313292 14.180136861103643 0
146 1 8 138.79602627681479 14.277202486920164 0
147 1 9 145.8059634302414 14.080174324296323 0
148 1 10 152.50378699352262 14.089573185287719 0
149 1 11 159.5658666941705 14.208803545079707 0
150 1 11 166.4289699908378 14.065256537770585 0
151 1 9 0.07029157964802879 18.16390923355332 0
152 1 8 6.943912972564947 18.07134654704795 0
153 1 7 13.907855953789907 18.33723064302113 0
154 1 13 20.94156463009638 18.258503670125414 0
155 1 14 27.84923783371524 18.195809801683957 0
156 1 8 35.01005144701442 18.158041233310296 0
157 1 8 41.6396250327515 18.193713384721867 0
158 1 8 48.570123274007386 18.25056566686001 0
159 1 14 55.72848888093615 18.22205014367691 0
160 1 13 62.3973643331072 18.00612202282592 0
161 1 7 69.60383310706968 18.378978480928605 0
162 1 8 76.52208930342873 18.313510697598737 0
163 1 9 83.45156514417977 18.252510011454234 0
164 1 10 90.0860927474979 18.030058498599676 0
165 1 11 97.17889524524286 18.049228425844017 0
166 1 11 103.96018494422452 18.38617385185658 0
167 1 11 111.01740525038953 18.172853710751234 0
168 1 10 117.96359883909452 18.127396394659232 0
169 1 9 124.75180112304149 18.375247047843413 0
170 1 8 131.68333391688753 18.033400363442137 0
171 1 7 138.6240128939557 18.20111074949386 0
172 1 13 145.75035631852668 18.34506980034047 0
173 1 14 152.52972316136243 18.105886099788545 0
174 1 8 159.59657158059844 18.038405525241 0
175 1 8 166.45484416940093 18.254746063190982 0
176 1 4 -3.181371322637331 20.14115741801788 0
177 1 13 3.5359275797210215 20.22652523569374 0
178 1 7 10.540804970970576 20.062547843321163 0
179 1 8 17.428757407484895 20.383252666428362 0
180 1 9 24.404489070764424 20.33236286892369 0
181 1 14 31.29726069623433 20.13850458526019 0
182 1 14 38.343019719463534 20.1872622721867 0
183 1 14 45.3162223614387 20.033814837982174 0
184 1 14 52.25015008473883 20.16686185071509 0
185 1 9 58.927195308690735 20.031121397913882 0
186 1 8 66.09235471159529 20.158566041075794 0
187 1 7 72.88219795296156 20.359673905120584 0
188 1 13 79.85834744677658 20.27850337036591 0
189 1 14 86.96647300973291 20.184431107438538 0
190 1 11 93.56379264635808 20.346327854255573 0
191 1 11 100.74189953500789 20.17072772818205 0
192 1 11 107.75716114295251 20.388580427817526 0
193 1 11 114.32609262629174 20.10139058337164 0
194 1 14 121.47926111174687 20.225277404633584 0
195 1 13 128.5254415337273 20.24142293453996 0
196 1 7 135.3643926190376 20.335612342370784 0
197 1 8 142.19688686477167 20.164492936432513 0
198 1 9 149.06023082615465 20.37686135504756 0
199 1 14 155.94197697331228 20.20084565981681 0
200 1 14 163.0894658741548 20.054424839008163 0
201 1 15 -3.0916876935683013 24.265409270863366 0
202 1 9 3.6796952213749807 24.057668665978476 0
203 1 8 10.789564739583428 24.24322493387388 0
204 1 7 17.558910016381564 24.023165093369528 0
205 1 13 24.60416940925767 24.284925859669173 0
206 1 9 31.49301106735483 24.30425330216512 0
207 1 9 38.43176545034079 24.09828278461197 0
208 1 9 45.24639614034961 24.327243611786983 0
209 1 9 52.04417229856116 24.305827239496114 0
210 1 13 59.207195889444705 24.206003706084804 0
211 1 7 65.85688650247323 24.08531829173136 0
212 1 8 72.77747835815774 24.033282034357345 0
213 1 9 79.83750635607491 24.01584288134498 0
214 1 10 86.93146520768079 24.3185930370772 0
215 1 11 93.79540176064782 24.385285358763696 0
216 1 11 100.63740190022884 24.051923866535034 0
217 1 11 107.58115057981651 24.21940976549064 0
218 1 11 114.61691614236678 24.184496290720755 0
219 1 10 121.2813232701815 24.25375710593228 0
220 1 9 128.27242254123405 24.220744899027093 0
221 1 8 135.3005789537845 24.347250633065265 0
222 1 7 142.13486381159788 24.220410040857846 0
223 1 13 149.10404513780273 24.29900848491177 0
224 1 9 156.23169195069556 24.327619700932487 0
225 1 9 163.1997964152143 24.028954621472757 0
226 1 14 0.3183521995320481 26.069024674527608 0
227 1 13 7.09081302805194 26.115226906606388 0
228 1 7 13.864049374719945 26.33276110910548 0
229 1 8 20.822905482568384 26.31764610864868 0
230 1 13 27.83558892217908 26.007880160076006 0
231 1 13 34.919112775223994 26.046412881831845 0
232 1 13 41.64917104955534 26.30855526477873 0
233 1 13 48.61915923941567 26.38107500410782 0
234 1 13 55.69661881476169 26.227238147166915 0
235 1 8 62.355874588071984 26.105242710161004 0
236 1 7 69.44286990203095 26.38735437105766 0
237 1 13 76.22441727837568 26.370334236450415 0
238 1 14 83.38483211912012 26.032565623773603 0
239 1 11 90.34844098176448 26.12302023501339 0
240 1 11 97.37959066768195 26.25963260121039 0
241 1 11 104.30326486639589 26.01091866601569 0
242 1 11 110.85293745386757 26.27756802438748 0
243 1 11 117.79631039256141 26.08734516579343 0
244 1 14 124.95787228884056 26.06025539812192 0
245 1 13 131.88391469543328 26.03366439280064 0
246 1 7 138.8686606876086 26.234929174981612 0
247 1 8 145.8481338332877 26.195661188787117 0
248 1 13 152.71002648471196 26.204857890785735 0
249 1 13 159.3862134389156 26.230905508900303 0
250 1 13 166.6568786405944 26.245493109710857 0
251 1 10 0.07845886674330248 30.02419692478218 0
252 1 9 7.278206433858985 30.049599728448175 0
253 1 8 14.146594840586976 30.383566951803473 0
254 1 7 21.03429821903957 30.027708449267628 0
255 1 8 27.86098172943209 30.127646720484965 0
256 1 8 34.65751444025757 30.141287237588518 0
257 1 8 41.839036964583435 30.010061205143625 0
258 1 8 48.76329941626247 30.08569306802381 0
259 1 8 55.66909517415761 30.371757719289207 0
260 1 7 62.72753227807312 30.301730690707952 0
261 1 8 69.5308999836542 30.049128762539922 0
262 1 9 76.42085216720822 30.17314830245823 0
263 1 10 83.21062149674916 30.041493739672482 0
264 1 11 90.4276659967684 30.036885591690265 0
265 1 11 97.1217025997376 30.33648317196392 0
266 1 12 103.98206977820314 30.05752752742068 0
267 1 11 111.01043998917963 30.214026253196245 0
268 1 11 117.9369750120306 30.122426758310493 0
269 1 10 125.02677952443166 30.196318173833156 0
270 1 9 131.789855210297 30.31904094215724 0
271 1 8 138.9523049551402 30.393292872196604 0
272 1 7 145.59612849057774 30.052729148767423 0
273 1 8 152.78684202854464 30.256231887205832 0
274 1 8 159.59473774152886 30.243848322199153 0
275 1 8 166.50399726913926 30.319352111214748 0
276 1 3 -3.20075739936203 32.08691107049134 0
277 1 14 3.5876209357713513 32.33346967178952 0
278 1 13 10.457328749876194 32.15106840876588 0
279 1 7 17.58293179104636 32.18647623364232 0
280 1 7 24.62180906331415 32.26244384519473 0
281 1 7 31.524101816473102 32.18139333424884 0
282 1 7 38.1425470248536 32.31204829095775 0
283 1 7 45.43318772330969 32.15222700128372 0
284 1 7 52.24914030961896 32.37257706534155 0
285 1 7 58.95535873089702 32.25607872459417 0
286 1 7 65.92624819021562 32.22907853950783 0
287 1 13 72.89212497975404 32.062234226967824 0
288 1 14 79.8625633170645 32.08762798201907 0
289 1 11 86.88623505679033 32.17821947825675 0
290 1 11 93.85520121981592 32.28425363572227 0
291 1 12 100.60514388962096 32.270475813693245 0
292 1 12 107.62220237324638 32.07409166170511 0
293 1 11 114.65537451403117 32.279618617528065 0
294 1 11 121.27578743983297 32.2847254550704 0
295 1 14 128.20901976653448 32.155694292398906 0
296 1 13 135.2168020395996 32.10219476670693 0
297 1 7 142.25169898858863 32.18495766239845 0
298 1 7 149.0133991365023 32.22969502267521 0
299 1 7 155.98708164247137 32.00368226486011 0
300 1 7 163.1212543084584 32.19276256374792 0
301 1 3 -3.2285342277175775 36.18261041762863 0
302 1 14 3.7933295195196735 36.1351867494682 0
303 1 13 10.528561044872617 36.02970679018955 0
304 1 7 17.43819817414884 36.10584015060875 0
305 1 7 24.61900853125842 36.314635456607135 0
306 1 7 31.38068322903322 36.20087123511189 0
307 1 7 38.35945859878471 36.08888065515286 0
308 1 7 45.229347571731616 36.14206257585967 0
309 1 7 52.32937112718749 36.34065058474136 0
310 1 7 59.01269505632117 36.06411240381849 0
311 1 7 66.14790990444587 36.08165351576593 0
312 1 13 73.07250913387269 36.38215441001239 0
313 1 14 79.9536732302644 36.134668326115204 0
314 1 11 86.64967853537179 36.007380555793354 0
315 1 11 93.64216397924125 36.34075779043691 0
316 1 12 100.75379861567855 36.03916674538559 0
317 1 12 107.5294116943055 36.23681422761675 0
318 1 11 114.56673412052847 36.25967405879621 0
319 1 11 121.45726029316198 36.12564869710318 0
320 1 14 128.37209782950455 36.213346297727334 0
321 1 13 135.26680268244414 36.308956009688046 0
322 1 7 142.27149735880016 36.02561752566244 0
323 1 7 149.18473982402188 36.053795382077624 0
324 1 7 156.0732334730201 36.062843144616394 0
325 1 7 163.16644709738 36.21145100500773 0
326 1 10 0.15934212157117075 38.23774662653535 0
327 1 9 7.01768897291873 38.03219091383542 0
328 1 8 14.073120533933594 38.20975603091296 0
329 1 7 20.831047566875366 38.38126472315371 0
330 1 8 27.718241974844112 38.29885419594161 0
331 1 8 34.64443624288307 38.159785117078385 0
332 1 8 41.74784488828012 38.025288196258515 0
333 1 8 48.53365143148231 38.06407332875134 0
334 1 8 55.7211704322965 38.394395247016384 0
335 1 7 62.603056983486105 38.14342154391345 0
336 1 8 69.34798866555437 38.05596734816969 0
337 1 9 76.27290780200033 38.3946978519266 0
338 1 10 83.18242377113958 38.00471871809342 0
339 1 11 90.18580646221581 38.34254650413923 0
340 1 11 97.08129680945247 38.36456115912564 0
341 1 12 104.09782238789913 38.12610016527481 0
342 1 11 111.06496230586475 38.02259348215325 0
343 1 11 118.14887965057612 38.322747871766126 0
344 1 10 125.03964439704409 38.06211734167608 0
345 1 9 131.72957223803846 38.299896629816445 0
346 1 8 138.90275173356414 38.34322440769258 0
347 1 7 145.6885638472921 38.19666155663241 0
348 1 8 152.51735507386547 38.029366644580705 0
349 1 8 159.4893789731903 38.21655658117787 0
350 1 8 166.5167652904916 38.20861097898104 0
351 1 14 0.1218791312618449 42.22489353358609 0
352 1 13 7.270195616413542 42.172455994573184 0
353 1 7 14.037573399958587 42.157175576547914 0
354 1 8 21.05740108533634 42.22811679489577 0
355 1 13 27.727435644068436 42.06249914250327 0
356 1 13 34.87320088372136 42.12829180218085 0
357 1 13 41.74936924025284 42.20649306504897 0
358 1 13 48.53812815151707 42.11803254338987 0
359 1 13 55.677278098468015 42.25105324501368 0
360 1 8 62.49056569543462 42.22998425788914 0
361 1 7 69.45069401622399 42.394927512901624 0
362 1 13 76.53322455276799 42.00529811369422 0
363 1 14 83.44031334432896 42.28594102998305 0
364 1 11 90.32195821873292 42.177526834623606 0
365 1 11 97.30437653334424 42.19327972695797 0
366 1 11 103.98366595806363 42.07607816544896 0
367 1 11 110.89385506478122 42.12034757138103 0
368 1 11 118.16194338328593 42.1001588161866 0
369 1 14 124.74041194896618 42.06631289542995 0
370 1 13 131.72137397957684 42.1235530408257 0
371 1 7 138.74193085329023 42.16526141159338 0
372 1 8 145.87700650671727 42.142476127139794 0
373 1 13 152.51234286344874 42.10916231883071 0
374 1 13 159.51209168980313 42.036674708531315 0
375 1 13 166.3970428234079 42.29608783814197 0
376 1 15 -3.369512319622103 44.149063072856414 0
377 1 9 3.7894802637855056 44.312692736796606 0
378 1 8 10.729334351496483 44.265507246964994 0
379 1 7 17.55546618376769 44.329439308455775 0
380 1 13 24.335530937691257 44.03026453227689 0
381 1 9 31.571412112224074 44.24464388562715 0
382 1 9 38.20850772487266 44.35477574228485 0
383 1 9 45.061004273878 44.034880363149156 0
384 1 9 52.183454127449 44.240902088325605 0
385 1 13 59.129068038017564 44.356001705837514 0
386 1 7 65.935457621659 44.30821310942148 0
387 1 8 72.79125239310105 44.22917996151445 0
388 1 9 80.05539849760075 44.13594993426987 0
389 1 10 86.61978645423395 44.20549703073877 0
390 1 11 93.6501673870447 44.045594296545616 0
391 1 11 100.51459152884884 44.398036311620295 0
392 1 11 107.75317681739674 44.37920515855539 0
393 1 11 114.38645798972419 44.13335306771272 0
394 1 10 121.39351157236693 44.08627589369271 0
395 1 9 128.53755119555697 44.09493028305596 0
396 1 8 135.48233078573364 44.01547576993 0
397 1 7 142.344685954408 44.18233924518832 0
398 1 13 149.03409395142435 44.30429282514698 0
399 1 9 156.04102765279438 44.04549627287808 0
400 1 9 163.15724001831853 44.03813525327844 0
401 1 4 -3.4312718570518665 48.243953034912465 0
402 1 13 3.832676020464334 48.205343215769915 0
403 1 7 10.632756623951494 48.22884556604296 0
404 1 8 17.553659732688235 48.088857543229246 0
405 1 9 24.550567758009493 48.12446092136338 0
406 1 14 31.42447016673384 48.147146070824775 0
407 1 14 38.21881198939672 48.30604096791783 0
408 1 14 45.27034039472342 48.094253662753225 0
409 1 14 52.13171509780736 48.25204791940433 0
410 1 9 59.23208826940739 48.305068560720784 0
411 1 8 65.94851416167946 48.16532470695013 0
412 1 7 72.9371521979321 48.07723616258242 0
413 1 13 79.8827454082939 48.30155616191137 0
414 1 14 86.76285386112211 48.35980481378751 0
415 1 11 93.57443680237135 48.17873269393918 0
416 1 11 100.77714316747561 48.002467012039915 0
417 1 11 107.77332066917207 48.070481107367186 0
418 1 11 114.50066095791546 48.04376399491025 0
419 1 14 121.3275427612282 48.04167514928056 0
420 1 13 128.36802302978165 48.074958578678945 0
421 1 7 135.31506717115604 48.298221857561636 0
422 1 8 142.1802431659011 48.10129136399894 0
423 1 9 149.09261320129724 48.157679790026876 0
424 1 14 156.27873830131952 48.36802786132869 0
425 1 14 163.08002986355035 48.37095589491691 0
426 1 9 0.0614195099181631 50.063902558270094 0
427 1 8 7.001782134191934 50.18738565044984 0
428 1 7 13.93017575486589 50.38527556904655 0
429 1 13 20.841265518035286 50.28226034170443 0
430 1 14 27.77861965184728 50.173594264031 0
431 1 8 34.77435670487437 50.24893448396668 0
432 1 8 41.64034924688468 50.18354338870789 0
433 1 8 48.858851186600326 50.355395245662486 0
434 1 14 55.74440717899025 50.24188791105525 0
435 1 13 62.491483673674814 50.174034452261225 0
436 1 7 69.43405032123735 50.39181112689046 0
437 1 8 76.57693044259335 50.20826467667039 0
438 1 9 83.47080881502066 50.271122603972266 0
439 1 10 90.28165309945807 50.01354174951654 0
440 1 11 97.29198952406055 50.28917980770425 0
441 1 11 103.99667322782115 50.278253051446164 0
442 1 11 110.98857703817586 50.346355141788536 0
443 1 10 118.11834044682615 50.26551096680517 0
444 1 9 124.93889278639834 50.0089302966241 0
445 1 8 131.66016499887544 50.01369179990611 0
446 1 7 138.8996666174355 50.02540962250243 0
447 1 13 145.64678705480185 50.27594872847923 0
448 1 14 152.57570628641128 50.31544845302463 0
449 1 8 159.60733350905338 50.271681969476866 0
450 1 8 166.3522971734177 50.0713199033023 0
451 1 13 0.3753535465913336 54.001677580419575 0
452 1 7 7.009562992049785 54.060197597125175 0
453 1 8 13.85940627466266 54.223430606390394 0
454 1 9 20.888679730100787 54.05447397596059 0
455 1 10 28.011116223437863 54.36539044978393 0
456 1 11 34.780713282798786 54.03953986464134 0
457 1 11 41.85229237180987 54.3892645339344 0
458 1 11 48.49867888760729 54.03443551658702 0
459 1 10 55.66714873272871 54.1196435472447 0
460 1 9 62.59156126347354 54.06295729605404 0
461 1 8 69.54812086246456 54.310365308674555 0
462 1 7 76.43657730813987 54.291347221236926 0
463 1 13 83.17843188568455 54.131304801722855 0
464 1 14 90.2252239441062 54.37732421724933 0
465 1 8 97.02482742179241 54.05067137591617 0
466 1 8 104.27073046604264 54.34326973585546 0
467 1 8 111.08543915596552 54.24110999758732 0
468 1 14 118.03290238073707 54.109405493845856 0
469 1 13 124.91328609541716 54.36860288912091 0
470 1 7 131.87634706358207 54.06590550355881 0
471 1 8 138.8092881408883 54.24056444853842 0
472 1 9 145.57216335554162 54.0017129635356 0
473 1 10 152.45252561963676 54.141453397963645 0
474 1 11 159.36231974492011 54.1216817235935 0
475 1 11 166.56330398832108 54.330475840449864 0
476 1 5 -3.163916247393451 56.31082123107594 0
477 1 8 3.5531295621467645 56.26105302323986 0
478 1 7 10.713046140740907 56.088516716733025 0
479 1 13 17.527524507335386 56.15508180578085 0
480 1 14 24.571416304369407 56.216513572707825 0
481 1 11 31.38488050500578 56.144462785994435 0
482 1 11 38.13759394812576 56.166966025769035 0
483 1 11 45.04706941135617 56.37431531145822 0
484 1 11 52.142194212160454 56.30948550043396 0
485 1 14 59.28598608985167 56.23392529336718 0
486 1 13 66.1414639508303 56.13790034364726 0
487 1 7 73.0477847947618 56.13569429521103 0
488 1 8 79.94577492321149 56.08502080168134 0
489 1 9 86.74899100851388 56.229549780504954 0
490 1 14 93.72635965536422 56.25461877947738 0
491 1 14 100.84402158966344 56.26234167690025 0
492 1 14 107.56704125438489 56.113251744479925 0
493 1 14 114.62530683148809 56.23752444653054 0
494 1 9 121.32611228884188 56.33211306314094 0
495 1 8 128.43309369699543 56.29716244743762 0
496 1 7 135.4400186223675 56.32852115848706 0
497 1 13 142.38215493374778 56.25578007592406 0
498 1 14 149.07735847891968 56.377856309841334 0
499 1 11 156.22728032362838 56.330914038576715 0
500 1 11 163.07451987404576 56.25567261172049 0
501 1 3 -3.4115914182089306 60.20997265149876 0
502 1 7 3.5053848073677205 60.0831667694516 0
503 1 8 10.719088609237327 60.18165030430841 0
504 1 9 17.657390466831213 60.14985822871201 0
505 1 10 24.62730287427548 60.23121824308478 0
506 1 11 31.551899865020413 60.11000436435058 0
507 1 11 38.322661426837634 60.385038718837826 0
508 1 11 45.29116464632607 60.18110475211034 0
509 1 11 52.02183491374633 60.29171333002801 0
510 1 10 59.12794111561428 60.3632841336311 0
511 1 9 66.18625291995679 60.10453072810154 0
512 1 8 73.08031867487767 60.24053044154744 0
513 1 7 80.04852510560043 60.38632132370894 0
514 1 13 86.83305401452515 60.31479208571575 0
515 1 9 93.91528115697275 60.05209437238894 0
516 1 9 100.57086297130786 60.04064571509337 0
517 1 9 107.66433018205083 60.14359715449106 0
518 1 9 114.69810282080832 60.19581311164893 0
519 1 13 121.37050374708215 60.174645683869606 0
520 1 7 128.4709020348467 60.37509056531108 0
521 1 8 135.3614773638149 60.217236288593064 0
522 1 9 142.38500950087897 60.08575754148419 0
523 1 10 149.1645462160869 60.28432840373059 0
524 1 11 156.2139799699297 60.06572891940446 0
525 1 11 163.12517423730634 60.34265800834945 0
526 1 8 0.05177402481768572 62.16412905463753 0
527 1 7 7.197931146801645 62.11099005492977 0
528 1 13 14.042648732374385 62.36552269499353 0
529 1 14 21.029145026330752 62.03829711465541 0
530 1 11 27.811669440271913 62.35771723333413 0
531 1 11 34.83236426364887 62.10231860066869 0
532 1 11 41.605738780707846 62.39002436437706 0
533 1 11 48.70125417146747 62.07729012309293 0
534 1 11 55.46952463036454 62.02134674597314 0
535 1 14 62.42475047790677 62.23201205300801 0
536 1 13 69.28216256595546 62.05608693266174 0
537 1 7 76.32005246335333 62.2385257785427 0
538 1 8 83.26495229558105 62.275784402329705 0
539 1 13 90.10752488361346 62.02830244950319 0
540 1 13 96.99991759236309 62.0386131926263 0
541 1 13 104.07853112708843 62.05050653366465 0
542 1 13 111.08536026533426 62.010130252249354 0
543 1 13 117.96755138648669 62.23643814738195 0
544 1 8 124.8607362202734 62.251596484457565 0
545 1 7 131.87537592971495 62.155733949822995 0
546 1 13 138.61778472277265 62.07881743961685 0
547 1 14 145.73001378565533 62.20547382738111 0
548 1 11 152.67287375568588 62.23155622426121 0
549 1 11 159.60505357107655 62.14840535844526 0
550 1 11 166.5812059968185 62.27501608756496 0
551 1 7 0.017440977596525808 66.04148367221815 0
552 1 8 6.938247822313187 66.24186752156399 0
553 1 9 13.931998589277827 66.13238867173533 0
554 1 10 21.10203668853657 66.06228731274923 0
555 1 11 27.913755415345552 66.00450057344895 0
556 1 11 34.90841829764654 66.21482643076351 0
557 1 12 41.791325924775386 66.09963606392184 0
558 1 11 48.710870042541345 66.16473521213248 0
559 1 11 55.620089316566556 66.28663128610782 0
560 1 10 62.56453259069949 66.34896134779734 0
561 1 9 69.32581609449952 66.32480299811327 0
562 1 8 76.28333090751568 66.21967211307262 0
563 1 7 83.30584907963006 66.05575407513416 0
564 1 8 90.40981240716094 66.03486018902423 0
565 1 8 97.09215206168854 66.20353010867315 0
566 1 8 104.28240267161549 66.39632123899203 0
567 1 8 110.95124332020362 66.04963663681738 0
568 1 8 118.1619144607229 66.03413253454805 0