
14309 atoms
14896 bonds
16659 angles
7 atom types
2 bond types
4 angle types

-5.680607966083864 171.52447279080386 xlo xhi
-2.0 148.0 ylo yhi
-4 4 zlo zhi


Masses

1 0.00022024034822104466
2 0.0005285768357305072
3 0.0004404806964420893
4 0.0007488171839515518
5 0.0003083364875094625
6 0.0004404806964420893
7 0.000616672975018925

Pair Coeffs

1 0.40509979849834776 0.44544935907016964 0.5
2 0.40509979849834776 0.44544935907016964 0.5
3 0.40509979849834776 0.44544935907016964 0.5
4 0.40509979849834776 0.44544935907016964 0.5
5 0.40509979849834776 0.44544935907016964 0.5
6 0.40509979849834776 0.44544935907016964 0.5
7 0.40509979849834776 0.44544935907016964 0.5

Bond Coeffs

1 88.09613928841786 0.5
2 123.33459500378501 0.5

Angle Coeffs

1 5.697566241054081 180
2 15.634121765452397 180
3 8.351560772143374 120
4 5.697566241054083 120

Atoms

1 1 1 -3.4347823958728894 0.2170157815595621 0
2 1 2 3.5568693669475597 0.3313679399608301 0
3 1 2 10.63001369042637 0.19852567828503864 0
4 1 3 17.712780895484165 0.16820483853354498 0
5 1 2 24.405257550108622 0.3843137254409278 0
6 1 2 31.49125947370581 0.154212438113968 0
7 1 3 38.15106972878591 0.08335033405919044 0
8 1 2 45.22343323494086 0.06912675220146461 0
9 1 2 52.19569239684019 0.1685045382214009 0
10 1 3 58.919997450348085 0.07945488637573345 0
11 1 2 66.11875667117583 0.3079812522009731 0
12 1 2 72.86702469543881 0.32281943804904345 0
13 1 3 79.91423666887613 0.15797210998727468 0
14 1 2 86.99911860174022 0.01773872112319528 0
15 1 2 93.89748488849617 0.2510354701694012 0
16 1 3 100.51831281461008 0.072483741043557 0
17 1 2 107.71976900630982 0.26593776423579807 0
18 1 2 114.64509850258469 0.2508814652567754 0
19 1 3 121.50437693946252 0.19626861683773528 0
20 1 2 128.4566465266677 0.34901265857721236 0
21 1 2 135.16271467800536 0.2875169565316117 0
22 1 3 142.31949000679424 0.22254051547961828 0
23 1 2 149.33781717372423 0.26755748714593813 0
24 1 2 155.88793136705397 0.047187611863396796 0
25 1 3 162.8999350196173 0.32102822219050275 0
26 1 4 0.2641955631032113 2.361453265825453 0
27 1 4 7.081838155575184 2.025386835838288 0
28 1 4 13.977673851681871 2.2280908890828335 0
29 1 4 21.092617170078892 2.3597921787703298 0
30 1 4 28.09504266015805 2.2277368375646622 0
31 1 4 34.75182188707837 2.0933692971468782 0
32 1 4 41.966310523276604 2.2218595796002676 0
33 1 4 48.56113456659578 2.0488006229477125 0
34 1 4 55.47303821900189 2.275512749647376 0
35 1 4 62.661679985801726 2.307319901174204 0
36 1 4 69.51752114840035 2.313581603039638 0
37 1 4 76.56522315440178 2.3327294992818857 0
38 1 4 83.2116135514599 2.364593191212616 0
39 1 4 90.45885415189936 2.3105032770780296 0
40 1 4 97.26066200369561 2.1629641721134996 0
41 1 4 104.10771796042866 2.0671234668250866 0
42 1 4 111.09571568582128 2.0221179371569113 0
43 1 4 117.82518958684265 2.045855310088865 0
44 1 4 124.98998852905703 2.24900876512504 0
45 1 4 131.77938762778888 2.0224343786992245 0
46 1 4 138.79494819898486 2.010193294429815 0
47 1 4 145.5708091573968 2.123247598239869 0
48 1 4 152.7054637433077 2.3847476998871846 0
49 1 4 159.3710893362219 2.0118998341605097 0
50 1 4 166.50609075509414 2.0319546586263315 0
51 1 4 0.27274469229532267 6.385817437809385 0
52 1 4 7.280517824542941 6.030564619266427 0
53 1 4 14.033862397048448 6.3938376243144095 0
54 1 4 20.91858304493423 6.067767892705485 0
55 1 4 27.988162437541195 6.337869459375828 0
56 1 4 35.01608849011758 6.072588101731806 0
57 1 4 41.788328302710404 6.0543101606364695 0
58 1 4 48.64178244319162 6.200054268909034 0
59 1 4 55.48721387150454 6.132340294011154 0
60 1 4 62.45256615720438 6.0150910223773195 0
61 1 4 69.34718947629358 6.2533707223473245 0
62 1 4 76.5378110173867 6.268556472523009 0
63 1 4 83.15600739342749 6.37852775929145 0
64 1 4 90.37969548953694 6.362166416085586 0
65 1 4 97.00603550540016 6.159185741661181 0
66 1 4 104.02721797108094 6.3490360917698645 0
67 1 4 110.96516159817892 6.203283536538833 0
68 1 4 118.02106568046493 6.383039662908331 0
69 1 4 124.78489125117774 6.167228692811887 0
70 1 4 131.92236588273124 6.062406118599715 0
71 1 4 138.9207285442824 6.050002667862964 0
72 1 4 145.68494783768935 6.088622059586662 0
73 1 4 152.53475747054298 6.034243640006077 0
74 1 4 159.68412224409863 6.3614587298034015 0
75 1 4 166.48669836518465 6.014663712854876 0
76 1 2 -3.0717661185125236 8.348903396606733 0
77 1 4 3.497281259536928 8.071395865954747 0
78 1 4 10.735800084724543 8.396573513406961 0
79 1 4 17.440895083350654 8.011993000642297 0
80 1 4 24.406205465328306 8.01532152305975 0
81 1 4 31.365937549849622 8.185072308283992 0
82 1 4 38.35867574616611 8.01243875501995 0
83 1 4 45.16722024742356 8.328664507643303 0
84 1 4 52.191515667099125 8.060012804450322 0
85 1 4 59.20830284958715 8.07464879512821 0
86 1 4 65.96072867324435 8.281533996939428 0
87 1 4 72.83714310663082 8.26159136086464 0
88 1 4 79.72118405717667 8.27523339254807 0
89 1 4 86.8927944359902 8.082597187250212 0
90 1 4 93.87659465446443 8.324492492329783 0
91 1 4 100.54030689253996 8.209621987539988 0
92 1 4 107.56616743622793 8.379622921120575 0
93 1 4 114.49933706052762 8.055175125027798 0
94 1 4 121.43482237147018 8.114050525078259 0
95 1 4 128.25971798859615 8.060717551128166 0
96 1 4 135.25118650890084 8.277688562400566 0
97 1 4 142.05190864673983 8.080763980865237 0
98 1 4 149.08507915708842 8.104058213739751 0
99 1 4 156.23215900434136 8.287982994147768 0
100 1 4 162.8142088210564 8.215238341932823 0
101 1 2 -3.395186286787005 12.284034080757978 0
102 1 4 3.826770610649858 12.334337422257109 0
103 1 4 10.676317715326075 12.147721276603171 0
104 1 4 17.52677087897095 12.071583696048961 0
105 1 4 24.525058701515736 12.335765113303683 0
106 1 4 31.455024065195722 12.074812331489149 0
107 1 4 38.181070085345176 12.163786204342193 0
108 1 4 45.306066036086044 12.020703972287512 0
109 1 4 52.24702956672467 12.036108454891124 0
110 1 4 59.14628913115509 12.313029657400122 0
111 1 4 66.0132517111544 12.318403930460745 0
112 1 4 72.77263046438344 12.275085250010065 0
113 1 4 79.90057482213565 12.33694171261692 0
114 1 4 86.66895288428984 12.111249589127022 0
115 1 4 93.56878514614095 12.01848373079813 0
116 1 4 100.72060003940264 12.23493281549402 0
117 1 4 107.51570041563816 12.307844104098155 0
118 1 4 114.61383411426091 12.25577195826835 0
119 1 4 121.31569267836898 12.000152538918929 0
120 1 4 128.26780144048277 12.071262030748155 0
121 1 4 135.1334464458774 12.367865344729593 0
122 1 4 142.1071645217535 12.348199692982567 0
123 1 4 149.22975245320893 12.067801414069427 0
124 1 4 155.96951190257934 12.169883312990489 0
125 1 4 163.1274331746006 12.151186791778088 0
126 1 4 0.31944513099275784 14.120503246798704 0
127 1 4 7.247051678310488 14.190437852351169 0
128 1 4 13.873059270171261 14.390218396626345 0
129 1 4 20.827637112047917 14.050530407147555 0
130 1 4 28.068330609309587 14.356393304946565 0
131 1 4 34.948854391776834 14.290119332097921 0
132 1 4 41.85658543560456 14.243970032799744 0
133 1 4 48.6158037457299 14.073493093520408 0
134 1 4 55.50938628114295 14.082258280100628 0
135 1 4 62.67359322354248 14.07747082312817 0
136 1 4 69.51412074074852 14.075973635320915 0
137 1 4 76.24667513579513 14.346171599226844 0
138 1 4 83.21895201318122 14.330390271362813 0
139 1 4 90.10719878293612 14.199183740211772 0
140 1 4 97.39218103590682 14.143662485605084 0
141 1 4 104.01132304520272 14.200450698141536 0
142 1 4 111.19713361384633 14.028334386296793 0
143 1 4 117.91168481568795 14.294375911636978 0
144 1 4 124.9697826016629 14.102226121035836 0
145 1 4 131.6555264404231 14.069089794432012 0
146 1 4 138.84509162702767 14.326270178494438 0
147 1 4 145.55253231982158 14.179644444079836 0
148 1 4 152.5943408420271 14.174583821458667 0
149 1 4 159.61915576115982 14.043939985274694 0
150 1 4 166.62204709852423 14.334528579489023 0
151 1 4 0.266150986897553 18.06161199707116 0
152 1 4 7.155136821966699 18.20810006327329 0
153 1 4 13.998643106411368 18.043402858839222 0
154 1 4 20.867147148438686 18.19268382219911 0
155 1 4 28.0874012840269 18.274354528028574 0
156 1 4 34.68897909819259 18.168910623905095 0
157 1 4 41.902853545378754 18.312192964043422 0
158 1 4 48.56357685573253 18.090427345966177 0
159 1 4 55.77971771888483 18.169253714419977 0
160 1 4 62.71365386023107 18.059810673410013 0
161 1 4 69.32280759760273 18.297813703352272 0
162 1 4 76.59640058846679 18.00520490601676 0
163 1 4 83.21511322171246 18.350069482939634 0
164 1 4 90.18146036984089 18.233626672472028 0
165 1 4 97.12199735184717 18.16262381005467 0
166 1 4 104.27892172981038 18.03793612241791 0
167 1 4 110.96281214112173 18.374087027028853 0
168 1 4 117.90182572483583 18.270237283202746 0
169 1 4 125.00663099638153 18.107932072897444 0
170 1 4 132.00157802320007 18.34454317026988 0
171 1 4 138.9409268106911 18.31009871862764 0
172 1 4 145.65519413797102 18.269625711978346 0
173 1 4 152.77919678740568 18.290440636989178 0
174 1 4 159.43387785977157 18.020482392541517 0
175 1 4 166.49852651433721 18.36497939474831 0
176 1 2 -3.1905093631438786 20.169692918670727 0
177 1 4 3.863252239691347 20.208306595521627 0
178 1 4 10.592430826282804 20.25819934842239 0
179 1 4 17.383565296942628 20.06884946329409 0
180 1 4 24.600264196539552 20.044145228657825 0
181 1 4 31.274019839844485 20.25862609139823 0
182 1 4 38.16033663349907 20.040736403857668 0
183 1 4 45.266256266118724 20.235892044819078 0
184 1 4 52.03401873938833 20.362868033292912 0
185 1 4 59.245724787601404 20.243258696623162 0
186 1 4 65.98099642561483 20.10038651757932 0
187 1 4 73.0800527381991 20.26864396872744 0
188 1 4 79.88546658567188 20.22666052354497 0
189 1 4 86.84227568046252 20.001420642824993 0
190 1 4 93.81847467886877 20.109845839148747 0
191 1 4 100.62397755439395 20.006040253520695 0
192 1 4 107.65564654263541 20.174726758072687 0
193 1 4 114.58658696794258 20.20062652605135 0
194 1 4 121.60691762063429 20.086217783041732 0
195 1 4 128.24139530247191 20.1322720456483 0
196 1 4 135.2196907506673 20.142670403006793 0
197 1 4 142.10475635661396 20.00899948745313 0
198 1 4 149.29680591691238 20.018695178556047 0
199 1 4 155.93376165055437 20.35356045140275 0
200 1 4 163.20218333149194 20.365089795565694 0
201 1 2 -3.44978291847701 24.213730812281266 0
202 1 4 3.7277483191434135 24.0980480392671 0
203 1 4 10.560667241215453 24.390780510221667 0
204 1 4 17.652467510086257 24.008494598031234 0
205 1 4 24.34489343893176 24.317030781896573 0
206 1 4 31.496816456524844 24.10770762010556 0
207 1 4 38.337422049970144 24.26579627719224 0
208 1 4 45.22491948261149 24.138745253585064 0
209 1 4 52.346796078922 24.092548891761098 0
210 1 4 58.903477953912784 24.068455034255532 0
211 1 4 66.03771962342299 24.11435478480422 0
212 1 4 73.14400887196659 24.154168468409797 0
213 1 4 79.67686288567992 24.24889500993883 0
214 1 4 86.75691418792582 24.19692818109007 0
215 1 4 93.79222971595155 24.289513536237436 0
216 1 4 100.77414647146364 24.188971719067936 0
217 1 4 107.67793183935379 24.314135039249475 0
218 1 4 114.6596004531968 24.121002226967907 0
219 1 4 121.5813636575545 24.086293918556176 0
220 1 4 128.52936780090195 24.086054090459413 0
221 1 4 135.14338126223234 24.210278042040326 0
222 1 4 142.2882559280242 24.064646220624272 0
223 1 4 149.20842508143335 24.352932039103017 0
224 1 4 156.13856180292433 24.367547715137725 0
225 1 4 162.91389581091283 24.31857579518295 0
226 1 4 0.34948821824804455 26.306054905114102 0
227 1 4 6.957508752712297 26.133629923121624 0
228 1 4 13.974107527507826 26.242396614619874 0
229 1 4 21.099841994268157 26.067592572836514 0
230 1 4 27.79027188703331 26.303771573189657 0
231 1 4 34.69026400315808 26.35969111818166 0
232 1 4 41.77857770011384 26.153149124731176 0
233 1 4 48.625739330006034 26.066848346886797 0
234 1 4 55.73406511257477 26.365310229164038 0
235 1 4 62.6846304269784 26.258132271645522 0
236 1 4 69.67506243701598 26.317495224413026 0
237 1 4 76.47055035273392 26.02309365651719 0
238 1 4 83.4897527914457 26.25321033367299 0
239 1 4 90.33531600946992 26.331163912845753 0
240 1 4 97.24174445131119 26.05634755227099 0
241 1 4 103.9851185436756 26.37519850731288 0
242 1 4 110.9383720441409 26.366610594026064 0
243 1 4 117.86324075005761 26.035263067707948 0
244 1 4 124.98599128745163 26.09965887532561 0
245 1 4 131.82604374508543 26.31772547788046 0
246 1 4 138.80194983628445 26.222547864026243 0
247 1 4 145.6518974238393 26.347414741387276 0
248 1 4 152.5072469321093 26.332581436665087 0
249 1 4 159.5521178645969 26.186197953987076 0
250 1 4 166.43173732725583 26.015649955197283 0
251 1 4 0.2058509131593995 30.26220757699917 0
252 1 4 7.131584363851162 30.26585247871111 0
253 1 4 13.962253224330382 30.055948810644768 0
254 1 4 20.8224915223493 30.02101457584406 0
255 1 4 27.922905208171407 30.292105703538418 0
256 1 4 34.68846382416511 30.164791221191436 0
257 1 4 41.602250498243414 30.340717409493347 0
258 1 4 48.60802712568367 30.35674396873958 0
259 1 4 55.617877961892425 30.210799182723598 0
260 1 4 62.38457103519113 30.31266169939247 0
261 1 4 69.40518668951616 30.008509368821393 0
262 1 4 76.48868727145606 30.280161009636117 0
263 1 4 83.40885711765503 30.267371611360467 0
264 1 4 90.36848869090821 30.0874429563708 0
265 1 4 97.14982715520841 30.047733999947887 0
266 1 4 104.03701287847574 30.111957991042544 0
267 1 4 111.22510543821475 30.070376757133907 0
268 1 4 117.90060309194415 30.339544448122478 0
269 1 4 124.85859134386071 30.227959934464735 0
270 1 4 131.9402169176277 30.234245065836785 0
271 1 4 138.60990092409494 30.153684128619393 0
272 1 4 145.51916801362404 30.377361556947985 0
273 1 4 152.56499869073636 30.17641632121493 0
274 1 4 159.5982619830965 30.00611354027792 0
275 1 4 166.5755533192019 30.20192670636773 0
276 1 2 -3.2661129671476665 32.28340192616236 0
277 1 4 3.8362669730326258 32.18897209401246 0
278 1 4 10.618937830481677 32.003187916020764 0
279 1 4 17.571546867037707 32.00878366262989 0
280 1 4 24.567120225497934 32.01681223024468 0
281 1 4 31.42677804772443 32.132874931706446 0
282 1 4 38.16207139639207 32.182418901957504 0
283 1 4 45.34833727694463 32.155702037763845 0
284 1 4 52.12180257938124 32.14279519481884 0
285 1 4 59.03441928275895 32.00751402590051 0
286 1 4 66.00933623524178 32.20282253857632 0
287 1 4 72.92554570419476 32.19814588852562 0
288 1 4 79.85742748077273 32.318828448121586 0
289 1 4 86.61340578550313 32.260272105185976 0
290 1 4 93.58943816307817 32.34938716664662 0
291 1 4 100.75677905955126 32.14671295748307 0
292 1 4 107.47126145418622 32.076542788314015 0
293 1 4 114.68097712300705 32.013281718370294 0
294 1 4 121.62698317912205 32.19742362023304 0
295 1 4 128.24133938329618 32.25267398382307 0
296 1 4 135.4288975654928 32.329642643257365 0
297 1 4 142.20642252023785 32.16266552997236 0
298 1 4 149.3158310928695 32.08271133481237 0
299 1 4 155.90833557095962 32.15223705766709 0
300 1 4 162.96063250541806 32.03353934761259 0
301 1 2 -3.4159414133082087 36.02571380803655 0
302 1 4 3.757256283969123 36.190095631259 0
303 1 4 10.452869743999411 36.340740217362786 0
304 1 4 17.509745988094686 36.096267982390714 0
305 1 4 24.35668232155893 36.08957887592741 0
306 1 4 31.448760107836765 36.08935164822451 0
307 1 4 38.35228134141395 36.142818235836785 0
308 1 4 45.366975837447285 36.38778149845003 0
309 1 4 52.18308636073185 36.27538525919105 0
310 1 4 58.95640729869357 36.08629511556182 0
311 1 4 66.20507901275148 36.008894693493744 0
312 1 4 73.00095388250107 36.126477520375005 0
313 1 4 80.03333206691971 36.23950356806997 0
314 1 4 86.97285229487488 36.11328259091721 0
315 1 4 93.75323687456695 36.07510882894893 0
316 1 4 100.71646648308761 36.30361506320932 0
317 1 4 107.48881833496525 36.00313693624926 0
318 1 4 114.47302527275056 36.26890797344444 0
319 1 4 121.48097628299078 36.01901225045454 0
320 1 4 128.17813850721117 36.359451936384474 0
321 1 4 135.10014969928017 36.275867536795 0
322 1 4 142.26892535384076 36.04101614427749 0
323 1 4 149.23751925486792 36.01245654928496 0
324 1 4 156.048732809306 36.32419174867514 0
325 1 4 163.04287907358838 36.305963212233216 0
326 1 4 0.28112554806001167 38.32731184527414 0
327 1 4 7.113061443256938 38.16067689643149 0
328 1 4 14.203017737208034 38.208652780291615 0
329 1 4 20.96282070603102 38.36526698320292 0
330 1 4 28.050405021870716 38.287557331055844 0
331 1 4 34.870004478223116 38.12082289311477 0
332 1 4 41.78773949386889 38.18207894787136 0
333 1 4 48.63818428557818 38.342219602630614 0
334 1 4 55.75786411070474 38.322628559763814 0
335 1 4 62.604021402494304 38.33943585030915 0
336 1 4 69.38826875295754 38.156534395728166 0
337 1 4 76.4858229853812 38.19740180679891 0
338 1 4 83.34575597742777 38.20127813728845 0
339 1 4 90.33220344363305 38.181707692974456 0
340 1 4 97.25541213980244 38.10475377137525 0
341 1 4 103.95952515794579 38.056348594093045 0
342 1 4 111.14220267782765 38.33012845896589 0
343 1 4 118.00315524927075 38.06384319073877 0
344 1 4 124.73518830073554 38.0500715653501 0
345 1 4 131.91936480480138 38.009526794812864 0
346 1 4 138.58571848313724 38.07502026390329 0
347 1 4 145.66158962887724 38.346160279580246 0
348 1 4 152.50853193646424 38.26921943498707 0
349 1 4 159.63474453096248 38.2466481078501 0
350 1 4 166.59499921094127 38.109258544942456 0
351 1 4 0.3349095560167379 42.29633527797264 0
352 1 4 7.2616704015113 42.08622902819004 0
353 1 4 14.163451273433646 42.10776373621066 0
354 1 4 21.069043651876775 42.23079586569598 0
355 1 4 27.968045630827916 42.12623063857 0
356 1 4 34.98052504222179 42.14516093581404 0
357 1 4 41.788372086007655 42.14065982165687 0
358 1 4 48.81738771854241 42.20526350961189 0
359 1 4 55.58342773472574 42.154336793442134 0
360 1 4 62.4255079633303 42.12203113530998 0
361 1 4 69.59760831950739 42.367347541126456 0
362 1 4 76.45764476185899 42.094807535052006 0
363 1 4 83.20535465151531 42.24530670359726 0
364 1 4 90.35729851135099 42.34956922688114 0
365 1 4 97.23605277119356 42.14394536859033 0
366 1 4 103.97954248619816 42.00353510125237 0
367 1 4 111.06055408797978 42.06499862823303 0
368 1 4 118.1730447339621 42.19096434054657 0
369 1 4 124.966058758648 42.349019870737614 0
370 1 4 131.7750444542474 42.03966127932075 0
371 1 4 138.66715956190237 42.300813044057335 0
372 1 4 145.55465827451118 42.25120168778633 0
373 1 4 152.51054221639757 42.19630013965198 0
374 1 4 159.43677015883117 42.263960087945215 0
375 1 4 166.31124901868566 42.032145784880726 0
376 1 2 -3.343988895925004 44.172975848785654 0
377 1 4 3.836870804106607 44.22779200044915 0
378 1 4 10.503746568517688 44.39494332475542 0
379 1 4 17.519200492210032 44.02074048133443 0
380 1 4 24.37531685900652 44.180234689055645 0
381 1 4 31.180873692870776 44.38973093720809 0
382 1 4 38.31535151646884 44.30087566821067 0
383 1 4 45.40322102474224 44.053685511154555 0
384 1 4 52.15352844486705 44.226991670030344 0
385 1 4 59.137176260752405 44.3941548754282 0
386 1 4 65.93101350732766 44.13613317431155 0
387 1 4 72.80281589831432 44.244216704079264 0
388 1 4 79.7035090455821 44.34709834723832 0
389 1 4 86.7623150219305 44.1232336585075 0
390 1 4 93.71333697123414 44.15983924498226 0
391 1 4 100.71093440843457 44.30657565770348 0
392 1 4 107.7456284688914 44.368705761275436 0
393 1 4 114.70698763801236 44.02441900776337 0
394 1 4 121.56366248973326 44.095527121906905 0
395 1 4 128.4204086977109 44.18156930105429 0
396 1 4 135.22941846395213 44.24285212867505 0
397 1 4 142.0410558071362 44.273328020937676 0
398 1 4 148.96337368907365 44.20946729110268 0
399 1 4 156.12255161213707 44.26999370900225 0
400 1 4 163.1517240039377 44.073550118838696 0
401 1 2 -3.3668209815042665 48.31574973665164 0
402 1 4 3.769078116495496 48.01392290917987 0
403 1 4 10.60665269190805 48.26495617468414 0
404 1 4 17.437886944563186 48.315970950100066 0
405 1 4 24.282007578517952 48.18590885561433 0
406 1 4 31.250225752743383 48.325367292042635 0
407 1 4 38.29703111003938 48.24958405001128 0
408 1 4 45.42522777896355 48.20347616020049 0
409 1 4 52.183943499641344 48.18147457641242 0
410 1 4 59.18002368506226 48.04229411347154 0
411 1 4 66.13339161338659 48.250882887952024 0
412 1 4 72.83984204949893 48.36724838284789 0
413 1 4 79.8579375860076 48.114846046588134 0
414 1 4 86.60311941097291 48.046133304575164 0
415 1 4 93.83914604210163 48.22306098404171 0
416 1 4 100.85242548655563 48.08620740272174 0
417 1 4 107.55821703078847 48.27470932653396 0
418 1 4 114.66218293024234 48.26603955264525 0
419 1 4 121.51200603523185 48.14629478449517 0
420 1 4 128.39748928449413 48.02175261323089 0
421 1 4 135.25416929672198 48.1060853613339 0
422 1 4 142.07709056000357 48.17085961484341 0
423 1 4 148.96628682895997 48.29549090025001 0
424 1 4 155.97256393077632 48.214716293889055 0
425 1 4 163.14219611998382 48.194766913683566 0
426 1 4 0.2901912114457066 50.24645743410175 0
427 1 4 7.1456154079526994 50.02817845697221 0
428 1 4 13.977320243708473 50.02290800662467 0
429 1 4 20.91407130174145 50.236080156462265 0
430 1 4 27.88829612539355 50.29994852879133 0
431 1 4 34.86365297090954 50.25700702723822 0
432 1 4 41.613095263149674 50.06596552717081 0
433 1 4 48.85972859248796 50.2952319257729 0
434 1 4 55.79045436551254 50.27811517212916 0
435 1 4 62.420458264590856 50.09785910642783 0
436 1 4 69.5885495906685 50.158563143670456 0
437 1 4 76.39536345198401 50.29590816526296 0
438 1 4 83.51557693416333 50.21261265913762 0
439 1 4 90.38147283498772 50.34010059190296 0
440 1 4 97.37544343757742 50.17974103273099 0
441 1 4 104.08171295720904 50.32469027968736 0
442 1 4 110.8961047689969 50.237829455162924 0
443 1 4 118.13063606646404 50.20714609166094 0
444 1 4 124.76980782895727 50.243856530373165 0
445 1 4 131.6679060435171 50.13853967789978 0
446 1 4 138.64141257435705 50.08918836362094 0
447 1 4 145.85266093490497 50.36251466506683 0
448 1 4 152.58561721789678 50.22334444527004 0
449 1 4 159.57232730416257 50.14265261255022 0
450 1 4 166.34000429590031 50.16847714774206 0
451 1 4 0.3948008594374974 54.29150137346568 0
452 1 4 7.132541100992845 54.1386410109674 0
453 1 4 14.049515994976097 54.071166957539354 0
454 1 4 20.804964647926187 54.125670308437094 0
455 1 4 27.730713677416595 54.132361788669044 0
456 1 4 34.8038776848259 54.12045777712362 0
457 1 4 41.78677991436371 54.269893470373205 0
458 1 4 48.6709639812317 54.00437264985155 0
459 1 4 55.50566800272446 54.163518507322486 0
460 1 4 62.55467101086092 54.35905954594222 0
461 1 4 69.39772729159188 54.2012397521049 0
462 1 4 76.49814214434046 54.356031320308745 0
463 1 4 83.24636321749952 54.28590019356812 0
464 1 4 90.0982391348882 54.35895333887817 0
465 1 4 97.28604902303019 54.00715580443595 0
466 1 4 104.08154416894003 54.139719354154884 0
467 1 4 111.24387403665179 54.20359793296765 0
468 1 4 118.11416181555826 54.35067679973737 0
469 1 4 125.01159865005654 54.290047520393564 0
470 1 4 131.95226927929824 54.392251825019635 0
471 1 4 138.68439394782163 54.23274816879969 0
472 1 4 145.5832590742515 54.34996304574495 0
473 1 4 152.7542517601184 54.056072290953104 0
474 1 4 159.38849930386095 54.28809324839865 0
475 1 4 166.46998867610253 54.08128674223872 0
476 1 2 -3.414504559079584 56.115263902854394 0
477 1 4 3.859091126031437 56.05366235422012 0
478 1 4 10.571366499123112 56.05764805349974 0
479 1 4 17.568444865220417 56.01874132489262 0
480 1 4 24.602431797051015 56.359846135720844 0
481 1 4 31.22361307347768 56.307542285165376 0
482 1 4 38.28974942361253 56.37736832238308 0
483 1 4 45.21797042441777 56.27493810373169 0
484 1 4 52.21483028745744 56.04253264163199 0
485 1 4 59.27877245217538 56.36263936084831 0
486 1 4 65.83147723504597 56.22338561573548 0
487 1 4 73.04160606563367 56.21337817028591 0
488 1 4 79.8467787392091 56.015606288254396 0
489 1 4 86.91521130102831 56.08459431331073 0
490 1 4 93.77383942957401 56.35783111652959 0
491 1 4 100.8216946281322 56.29668437559269 0
492 1 4 107.58332442142354 56.22637673297527 0
493 1 4 114.51836818572984 56.19412391501076 0
494 1 4 121.4150168667109 56.26945610866231 0
495 1 4 128.30527680368363 56.04506086168195 0
496 1 4 135.38317888899036 56.35895837695429 0
497 1 4 142.0593543554451 56.37771621401147 0
498 1 4 149.20604250490393 56.12470075992027 0
499 1 4 156.07659468049005 56.38258776471828 0
500 1 4 163.0732200689196 56.32512433903138 0
501 1 2 -3.2888511486027037 60.18728483836177 0
502 1 4 3.8421369868543724 60.16619060787182 0
503 1 4 10.423399178575162 60.14668971214155 0
504 1 4 17.350218854967835 60.03726288495497 0
505 1 4 24.480999132716505 60.014789848953434 0
506 1 4 31.468708778426564 60.26246757966501 0
507 1 4 38.27821628254305 60.35303572872598 0
508 1 4 45.14789161301471 60.23760052794876 0
509 1 4 52.01262100066929 60.331434273786485 0
510 1 4 58.923446407047194 60.35318035700831 0
511 1 4 65.92094544376316 60.24310604892766 0
512 1 4 73.1057718422979 60.08702281306116 0
513 1 4 79.75999237216074 60.38259286786563 0
514 1 4 86.80522787733024 60.30488669188366 0
515 1 4 93.90609552042335 60.03916146690771 0
516 1 4 100.50003873574055 60.13694950124243 0
517 1 4 107.53884183913989 60.03768700628019 0
518 1 4 114.70666382342161 60.0311061225071 0
519 1 4 121.42995391123418 60.36838531202834 0
520 1 4 128.33139771902827 60.10839799536163 0
521 1 4 135.3488496882705 60.184286842546 0
522 1 4 142.13616630770196 60.23010190241026 0
523 1 4 149.33388888569937 60.320618293954674 0
524 1 4 156.21574295491683 60.161740310989444 0
525 1 4 163.138952590181 60.05395191968967 0
526 1 4 0.12368389881108516 62.27630339872798 0
527 1 4 7.259037687895807 62.2678546153628 0
528 1 4 14.11750523034276 62.24829792368558 0
529 1 4 21.050226741376186 62.073109065361066 0
530 1 4 27.789370362814374 62.367884217843404 0
531 1 4 34.72961149604513 62.36165066244107 0
532 1 4 41.848946104569215 62.19476660324748 0
533 1 4 48.73681306330465 62.09806746013418 0
534 1 4 55.72605718171346 62.39061224584623 0
535 1 4 62.54676539033341 62.1731761286294 0
536 1 4 69.36946321236367 62.044509506082846 0
537 1 4 76.30200755465242 62.33112768377892 0
538 1 4 83.19599091945055 62.29961281784505 0
539 1 4 90.4580996642782 62.3597123283937 0
540 1 4 97.26062317305063 62.26171121687724 0
541 1 4 104.04374987666135 62.2522843387446 0
542 1 4 110.92769181711097 62.132411400051076 0
543 1 4 118.04906069818658 62.34851040187442 0
544 1 4 124.74174470731532 62.28948988168114 0
545 1 4 131.83685766794704 62.24409176441557 0
546 1 4 138.80642306736303 62.30982088676906 0
547 1 4 145.6221829467849 62.21741270887819 0
548 1 4 152.64843902272506 62.3245476731167 0
549 1 4 159.59501063673957 62.07523170642956 0
550 1 4 166.62227055837863 62.335875970081844 0
551 1 4 0.17864352315973578 66.26843068330227 0
552 1 4 7.224473684112008 66.18413990719026 0
553 1 4 13.931244246335105 66.14905041706024 0
554 1 4 20.85913711562565 66.11319883456413 0
555 1 4 27.83900814453913 66.34025985448989 0
556 1 4 35.03858660528692 66.12255904366826 0
557 1 4 41.76822624233433 66.16102458844814 0
558 1 4 48.76344670434959 66.13086576133433 0
559 1 4 55.607493515142444 66.01435950113864 0
560 1 4 62.564233134036506 66.38797595310359 0
561 1 4 69.33536246797367 66.17557870474104 0
562 1 4 76.27514969110841 66.3631059375349 0
563 1 4 83.49831777835095 66.13134033009598 0
564 1 4 90.126936169715 66.08896009541944 0
565 1 4 97.10125164687206 66.33412902828097 0
566 1 4 104.28166180841244 66.043491370373 0
567 1 4 110.98937961259301 66.00891585735096 0
568 1 4 118.111235153029 66.22517289109001 0
569 1 4 124.78595677793737 66.22757033635526 0
570 1 4 131.95548517814188 66.33303040553865 0
571 1 4 138.77379860482796 66.24855219400469 0
572 1 4 145.83658888421994 66.2152192391492 0
573 1 4 152.67882911496122 66.12906859583802 0
574 1 4 159.51747606195823 66.07548455837888 0
575 1 4 166.39743052061627 66.11295177699066 0
576 1 2 -3.1763629868452363 68.1502752517182 0
577 1 4 3.7272878422055076 68.2132478894309 0
578 1 4 10.462581781626108 68.3226667048189 0
579 1 4 17.688942043684182 68.00268144796713 0
580 1 4 24.249547006459753 68.3061590519061 0
581 1 4 31.197490826834834 68.03800136923294 0
582 1 4 38.34584899738847 68.00885290414392 0
583 1 4 45.408755865453514 68.36736977819582 0
584 1 4 52.161314071701156 68.22812635369392 0
585 1 4 59.027942964763525 68.24134742920492 0
586 1 4 65.8597717097597 68.06035419302536 0
587 1 4 72.80103579066214 68.21314735054821 0
588 1 4 79.75309672070682 68.00442036038353 0
589 1 4 86.77833296273371 68.18166452309393 0
590 1 4 93.55596294443295 68.25760937562686 0
591 1 4 100.5219539622072 68.30947512883007 0
592 1 4 107.49892565351603 68.1992080182775 0
593 1 4 114.49702972498444 68.05930143928009 0
594 1 4 121.60297658807112 68.12500404034515 0
595 1 4 128.5027177248321 68.0602279477959 0
596 1 4 135.26652874221625 68.3410512941957 0
597 1 4 142.033892420253 68.23166484194422 0
598 1 4 149.1952932877072 68.35936498204318 0
599 1 4 155.9950558320786 68.12709750435403 0
600 1 4 163.20869683905133 68.29908230319973 0
601 1 2 -3.462726624609244 72.05687009662981 0
602 1 4 3.6769758866322215 72.18900733131831 0
603 1 4 10.453411348612422 72.15136734974183 0
604 1 4 17.554424483672562 72.17968891800389 0
605 1 4 24.27927474444725 72.19175368507673 0
606 1 4 31.420004909958987 72.22217507104857 0
607 1 4 38.22723500838833 72.29491077183292 0
608 1 4 45.26444912677003 72.2985825439606 0
609 1 4 52.03901311833189 72.39424281719333 0
610 1 4 59.21732769074222 72.2050892880637 0