
14309 atoms
14896 bonds
16659 angles
24 atom types
7 bond types
18 angle types

-5.680607966083864 171.52447279080386 xlo xhi
-2.0 148.0 ylo yhi
-4 4 zlo zhi


Masses

1 0.0002365017782088587
2 0.0004945037180730682
3 0.0006020045263498222
4 0.00032250242483026185
5 0.0004730035564177174
6 0.000731005496281927
7 0.0006880051729712253
8 0.0009030067895247332
9 0.0007740058195926285
10 0.0008600064662140316
11 0.0009030067895247333
12 0.0005590042030391206
13 0.00045150339476236664
14 0.0006235046880051729
15 0.0004300032331070158
16 0.0003010022631749111
17 0.0002580019398642095
18 0.0004730035564177174
19 0.000516003879728419
20 0.0004300032331070158
21 0.0005590042030391206
22 0.0006880051729712253
23 0.00034400258648561267
24 0.0003010022631749111

Pair Coeffs

1 0.40509979849834776 0.44544935907016964 0.5
2 0.40509979849834776 0.44544935907016964 0.5
3 0.40509979849834776 0.44544935907016964 0.5
4 0.40509979849834776 0.44544935907016964 0.5
5 0.40509979849834776 0.44544935907016964 0.5
6 0.40509979849834776 0.44544935907016964 0.5
7 0.40509979849834776 0.44544935907016964 0.5
8 0.40509979849834776 0.44544935907016964 0.5
9 0.40509979849834776 0.44544935907016964 0.5
10 0.40509979849834776 0.44544935907016964 0.5
11 0.40509979849834776 0.44544935907016964 0.5
12 0.40509979849834776 0.44544935907016964 0.5
13 0.40509979849834776 0.44544935907016964 0.5
14 0.40509979849834776 0.44544935907016964 0.5
15 0.40509979849834776 0.44544935907016964 0.5
16 0.40509979849834776 0.44544935907016964 0.5
17 0.40509979849834776 0.44544935907016964 0.5
18 0.40509979849834776 0.44544935907016964 0.5
19 0.40509979849834776 0.44544935907016964 0.5
20 0.40509979849834776 0.44544935907016964 0.5
21 0.40509979849834776 0.44544935907016964 0.5
22 0.40509979849834776 0.44544935907016964 0.5
23 0.40509979849834776 0.44544935907016964 0.5
24 0.40509979849834776 0.44544935907016964 0.5

Bond Coeffs

1 94.60071128354348 0.5
2 103.2007759456838 0.5
3 86.00064662140316 0.5
4 111.80084060782411 0.5
5 137.60103459424505 0.5
6 68.80051729712252 0.5
7 60.20045263498221 0.5

Angle Coeffs

1 7.055080269285747 180
2 9.159413001747385 180
3 5.300586227863071 180
4 11.645387942615166 180
5 21.711201189327138 180
6 2.7139001486658922 180
7 1.818101076157033 180
8 7.970695459513418 120
9 7.2851973366375775 120
10 12.883569936523791 120
11 2.177468423374037 120
12 7.055080269285747 120
13 6.053264924312096 120
14 15.159545213078571 120
15 11.645387942615166 120
16 4.187160229370233 120
17 9.159413001747385 120
18 1.818101076157033 120

Atoms

1 1 1 -3.21711306402857 0.010935137837026288 0
2 1 2 3.8398681363339673 0.18051737261723413 0
3 1 2 10.730475827689151 0.3278862695686293 0
4 1 3 17.65279619980544 0.16508408820347267 0
5 1 4 24.49498989210055 0.015879825756503197 0
6 1 4 31.460795144763853 0.26124334973003743 0
7 1 3 38.398535327419935 0.06314844610999355 0
8 1 2 45.34270231616063 0.2315528021323802 0
9 1 2 52.26361089376712 0.2242053257694471 0
10 1 5 58.932218957539654 0.36216345192935295 0
11 1 5 66.06042868190671 0.052156999592374347 0
12 1 5 73.1156516690193 0.23702000576849264 0
13 1 5 79.72598289360333 0.12875995440039786 0
14 1 2 86.76173933907933 0.24260481308855406 0
15 1 2 93.65232716196631 0.37297674105180567 0
16 1 3 100.60361217085202 0.0070643839733187 0
17 1 4 107.44944808560177 0.2133788240030099 0
18 1 4 114.67288714103954 0.03608342456892388 0
19 1 3 121.60073966378827 0.10173023421343946 0
20 1 2 128.33550311020318 0.15162053404839904 0
21 1 2 135.2494882430062 0.07659120277606296 0
22 1 5 142.12448243810016 0.028745860295773973 0
23 1 5 149.25348864581153 0.1338061818292538 0
24 1 5 156.25074554222516 0.10015450257622734 0
25 1 5 163.07479498553698 0.20250677557840763 0
26 1 6 0.21971011963937268 2.087059165118001 0
27 1 7 7.295667628555859 2.1940742645101823 0
28 1 8 13.86940727294578 2.1363442381812643 0
29 1 7 21.042529259456746 2.1440177264536664 0
30 1 5 28.09942771164145 2.011282348246156 0
31 1 7 34.65349954580033 2.1434433057875806 0
32 1 8 41.91934524382849 2.2376019265236544 0
33 1 7 48.821448278284855 2.0947173358941527 0
34 1 6 55.6636347236855 2.3376777064189955 0
35 1 7 62.633240861381445 2.20684083449078 0
36 1 7 69.29792319519076 2.275561493193061 0
37 1 7 76.22987261147946 2.1200329338169173 0
38 1 6 83.53124110664922 2.2917920859494343 0
39 1 7 90.16512380621583 2.304314573100821 0
40 1 8 97.18783221375598 2.3660879951656426 0
41 1 7 104.31993649424831 2.071775466994106 0
42 1 5 111.08158594263607 2.0459160042382973 0
43 1 7 117.87345448920395 2.0150570012280027 0
44 1 8 124.74315480482407 2.0750047101331455 0
45 1 7 131.72189247211796 2.3504651499977838 0
46 1 6 138.9086182883923 2.2839413463849825 0
47 1 7 145.65058537786405 2.342822768763187 0
48 1 7 152.46478254898835 2.320263258269293 0
49 1 7 159.34920378400633 2.063236152049973 0
50 1 6 166.37328568298133 2.0497663331304143 0
51 1 7 0.14608730922247257 6.1927918969680125 0
52 1 6 7.05615362324962 6.046581171321445 0
53 1 9 14.141194116441138 6.023546607113781 0
54 1 10 20.876439374064613 6.262206275226782 0
55 1 7 27.81449165241797 6.006074151740202 0
56 1 10 34.7553331832135 6.290139804742212 0
57 1 9 41.855161385028964 6.208620513201363 0
58 1 6 48.8869798663276 6.329841581015745 0
59 1 7 55.578630060968145 6.308639962415265 0
60 1 9 62.716690738419985 6.209286141449926 0
61 1 9 69.62094926497495 6.034196088380517 0
62 1 9 76.30942044941443 6.052758716080455 0
63 1 7 83.14850298886421 6.2366327243236395 0
64 1 6 90.1532227877098 6.059926038496835 0
65 1 9 97.32581001184684 6.061767299113433 0
66 1 10 104.09353147639956 6.235232704348757 0
67 1 7 110.8675144676939 6.235209602015814 0
68 1 10 118.07270757587287 6.0923300944968215 0
69 1 9 125.01846536214599 6.050950006478951 0
70 1 6 131.97382401906077 6.037796605234324 0
71 1 7 138.88414277191725 6.3034672103739355 0
72 1 9 145.5509999828458 6.089724325106304 0
73 1 9 152.7965750259765 6.351742029783166 0
74 1 9 159.58538296593608 6.388763319624132 0
75 1 7 166.31174016876778 6.367075929155162 0
76 1 2 -3.140443681098464 8.04516875542814 0
77 1 6 3.659352030044495 8.301299012086073 0
78 1 7 10.660764591363154 8.379525918172327 0
79 1 8 17.622714585876945 8.23464518830965 0
80 1 10 24.282783953833878 8.082557624784833 0
81 1 10 31.48681183531916 8.327188217341625 0
82 1 8 38.27955945103561 8.354444376023382 0
83 1 7 45.20737553265813 8.234126100629378 0
84 1 6 52.009369558041136 8.231449236853694 0
85 1 9 59.195337569039516 8.24802363364502 0
86 1 11 66.02920352172949 8.374000586499678 0
87 1 11 73.14280377179553 8.232367208094493 0
88 1 9 79.8019044633162 8.144110265623947 0
89 1 6 86.9787540608332 8.019048556582547 0
90 1 7 93.85761820117888 8.129019521914602 0
91 1 8 100.66159599374993 8.06163615981408 0
92 1 10 107.70408145169726 8.272983384511061 0
93 1 10 114.67461815059436 8.39840133468186 0
94 1 8 121.5024197459478 8.093042711256773 0
95 1 7 128.38864224919473 8.335605295197583 0
96 1 6 135.41966317946628 8.24170167564166 0
97 1 9 142.29429249778582 8.003997201493474 0
98 1 11 149.2414560450801 8.265278029649954 0
99 1 11 156.18487499643595 8.395792519662322 0
100 1 9 163.05579100961543 8.073696146550846 0
101 1 12 -3.4488238247451632 12.256827580778534 0
102 1 7 3.656159852671287 12.378149649989243 0
103 1 6 10.761829547959957 12.069030306681553 0
104 1 9 17.533331880375247 12.24721993821023 0
105 1 11 24.32955475353204 12.22583840938665 0
106 1 11 31.538305501415564 12.119538527807636 0
107 1 9 38.426142693066915 12.154100985038816 0
108 1 6 45.11347418000486 12.15038788399309 0
109 1 7 52.045367249693975 12.099145964871058 0
110 1 8 59.245158789934116 12.271641066487888 0
111 1 10 65.97126407778109 12.033446331612002 0
112 1 10 72.85721228711235 12.23061533230708 0
113 1 8 80.03589645078083 12.392860615244164 0
114 1 7 86.7026505523871 12.351332233705161 0
115 1 6 93.83174693792961 12.034498229932359 0
116 1 9 100.57699224564259 12.12903004913484 0
117 1 11 107.59416889053757 12.015737674400473 0
118 1 11 114.55296289833682 12.201990850187135 0
119 1 9 121.53890918014321 12.174234628219011 0
120 1 6 128.49137356766 12.193280317022527 0
121 1 7 135.17341410338057 12.260918695567705 0
122 1 8 142.22827313859827 12.163605391539345 0
123 1 10 149.20292813694002 12.135276209940825 0
124 1 10 155.92449836013083 12.090988044125782 0
125 1 8 163.19236506193533 12.208228369559054 0
126 1 9 0.08388256733619058 14.305109429512001 0
127 1 6 7.026576114559264 14.337225458206655 0
128 1 7 14.05241547296398 14.013518246267825 0
129 1 9 21.114376894201342 14.089902567738239 0
130 1 9 27.76929183128123 14.031726311666805 0
131 1 9 34.68193227385136 14.218190277278493 0
132 1 7 41.73693818119486 14.32193481962689 0
133 1 6 48.83461425771815 14.188728921471402 0
134 1 9 55.64515303014397 14.271340852260666 0
135 1 10 62.6275211856004 14.029043789084412 0
136 1 7 69.56262798895627 14.31260144775139 0
137 1 10 76.40718517286534 14.163043558924741 0
138 1 9 83.28530997271511 14.268049745924396 0
139 1 6 90.08016461272906 14.037669875174883 0
140 1 7 97.01501344436883 14.025678624649982 0
141 1 9 103.93478622213067 14.14997835194744 0
142 1 9 111.03653409360149 14.37069913110655 0
143 1 9 117.85368212055866 14.315925243017364 0
144 1 7 124.77145759720031 14.148013047411943 0
145 1 6 131.81953733217313 14.161637735566448 0
146 1 9 138.70677523474842 14.295236254846063 0
147 1 10 145.57856377212312 14.131065895034581 0
148 1 7 152.56210095423472 14.118101721538004 0
149 1 10 159.3662115500564 14.340986529798336 0
150 1 9 166.63417009911595 14.278553274377119 0
151 1 8 0.2676638108376876 18.286107355480706 0
152 1 7 7.18955713981205 18.30193824769349 0
153 1 6 13.9285622043297 18.234824943234695 0
154 1 7 21.116955245714962 18.24281938663477 0
155 1 7 28.060557789086232 18.04415592319064 0
156 1 7 34.8998830967618 18.366436562510977 0
157 1 6 41.85458849000142 18.269986405704017 0
158 1 7 48.703390816642795 18.094737265194347 0
159 1 8 55.69169692269148 18.17050507330928 0
160 1 7 62.472626506059356 18.395129217793013 0
161 1 5 69.4959587827833 18.217011116244702 0
162 1 7 76.2454542654335 18.083558652192398 0
163 1 8 83.37824593206938 18.29973066561641 0
164 1 7 90.13122680136684 18.122499920908822 0
165 1 6 97.3292670802312 18.007941819648053 0
166 1 7 104.27489841162689 18.18024920421903 0
167 1 7 111.23175825909905 18.165056781684317 0
168 1 7 117.90151771200256 18.272577423462135 0
169 1 6 124.74873720135636 18.32291028769069 0
170 1 7 131.81133269046884 18.282457253663278 0
171 1 8 138.73289742521465 18.161781240978073 0
172 1 7 145.85210759092075 18.20953743782135 0
173 1 5 152.42290341779702 18.374425793576084 0
174 1 7 159.55842477091088 18.11369483929592 0
175 1 8 166.6054425692303 18.16558845387403 0
176 1 3 -3.343142084887575 20.05940122499442 0
177 1 9 3.5413906596942257 20.170975592049473 0
178 1 6 10.618734759772945 20.328586300402936 0
179 1 6 17.433981610873385 20.342564604632493 0
180 1 6 24.294176704435344 20.11896632540356 0
181 1 6 31.206813213260236 20.070769828787146 0
182 1 6 38.219485832971486 20.14473305688758 0
183 1 6 45.30768742239686 20.078421697180058 0
184 1 9 52.35435080640044 20.266016978156696 0
185 1 10 59.18614517484995 20.18534433262135 0
186 1 5 65.83763039353543 20.129209520320384 0
187 1 5 73.03811602524769 20.38831524274784 0
188 1 10 79.74102932577442 20.14185427326024 0
189 1 9 86.70374946667889 20.059106810982588 0
190 1 6 93.92809166677031 20.264695929325914 0
191 1 6 100.74810611025359 20.36600570402261 0
192 1 6 107.55541218520571 20.357316214315862 0
193 1 6 114.6137640004127 20.35211703213372 0
194 1 6 121.45835447838068 20.385650006814334 0
195 1 6 128.36088453829367 20.0678917503924 0
196 1 9 135.35196385618045 20.217746325803372 0
197 1 10 142.09871087988716 20.201990270860772 0
198 1 5 148.98249356665093 20.26116544890229 0
199 1 5 156.15042872952685 20.100057016334723 0
200 1 10 162.89879819921896 20.00648362548101 0
201 1 3 -3.070652126976777 24.212999382112447 0
202 1 9 3.8234497447958242 24.207541642758287 0
203 1 6 10.696141303858713 24.090691982455436 0
204 1 6 17.47546083280758 24.15973780508274 0
205 1 6 24.463955749676035 24.250708213685098 0
206 1 6 31.41263887851734 24.294788500164046 0
207 1 6 38.45208852490059 24.229697782291073 0
208 1 6 45.3053794038911 24.050472404906515 0
209 1 9 52.13063760337369 24.136779859133483 0
210 1 10 59.01372928206748 24.361331823484186 0
211 1 5 66.06264478389154 24.358081687912364 0
212 1 5 73.00188362071196 24.06100254942703 0
213 1 10 79.85110748315878 24.326849955915094 0
214 1 9 86.72910668714422 24.099410838987723 0
215 1 6 93.64388907601197 24.22422925099555 0
216 1 6 100.59213673413547 24.15928752965183 0
217 1 6 107.40804935590586 24.049780251889334 0
218 1 6 114.6830542807632 24.23165138171015 0
219 1 6 121.24858428102644 24.19103940172625 0
220 1 6 128.32822216723363 24.153400092289676 0
221 1 9 135.40544503656855 24.14390964083902 0
222 1 10 142.17183128158314 24.23880266475593 0
223 1 5 148.97955879805204 24.389867183558685 0
224 1 5 156.06424065694097 24.211932017768355 0
225 1 10 163.07549045749354 24.167922850720277 0
226 1 8 0.35462445187781105 26.347158454924823 0
227 1 7 7.160756959768789 26.044172072731104 0
228 1 6 13.982664287939556 26.033131597646268 0
229 1 7 21.124100438446135 26.390720042259794 0
230 1 7 27.889307985086745 26.176309214713527 0
231 1 7 34.77825444550016 26.186253787103546 0
232 1 6 41.894590335798846 26.186466403240875 0
233 1 7 48.70526977985616 26.38806429260555 0
234 1 8 55.48738073948215 26.21627362724776 0
235 1 7 62.67675081410873 26.195474383514576 0
236 1 5 69.46165358518537 26.087788301919318 0
237 1 7 76.5150598525657 26.311362193181267 0
238 1 8 83.31888788627118 26.39542735475377 0
239 1 7 90.33316823767389 26.07469018386937 0
240 1 6 97.26425364906464 26.399434760093175 0
241 1 7 104.26910702285545 26.10335246284448 0
242 1 7 110.93804374400553 26.26256987413551 0
243 1 7 118.11964633033595 26.254884639043514 0
244 1 6 125.03523390854534 26.311435427101006 0
245 1 7 131.67890222487245 26.17279753462406 0
246 1 8 138.9487983630774 26.34507672334158 0
247 1 7 145.65698430770786 26.361567337850847 0
248 1 5 152.6307302777498 26.052390599253016 0
249 1 7 159.44699539697126 26.173397605126503 0
250 1 8 166.45553311158798 26.029752955456342 0
251 1 9 0.1198980007683931 30.03331019296609 0
252 1 6 6.960116213408569 30.328120819606287 0
253 1 7 13.989047482568623 30.17476176641228 0
254 1 9 21.05362004006496 30.243283140405055 0
255 1 9 27.829393750456862 30.073606304560336 0
256 1 9 34.98024963605178 30.254551747129966 0
257 1 7 41.70624139183921 30.145474097070732 0
258 1 6 48.792227251359954 30.255529063816248 0
259 1 9 55.44599723932633 30.376118490343796 0
260 1 10 62.373758700091955 30.286025710246825 0
261 1 7 69.37288163691126 30.153335881613227 0
262 1 10 76.3032299187927 30.092414151677776 0
263 1 9 83.28280816440342 30.259269089517375 0
264 1 6 90.22423367359005 30.36801207288356 0
265 1 7 97.05376363076942 30.00932867665793 0
266 1 9 104.13467438559262 30.02643087982772 0
267 1 9 111.23104707067154 30.243660275679222 0
268 1 9 117.92396240771025 30.185153721028207 0
269 1 7 125.05973426514103 30.30473349658124 0
270 1 6 131.86366718030712 30.27198141531831 0
271 1 9 138.73098070881505 30.379605133599306 0
272 1 10 145.8743800503029 30.173970858998775 0
273 1 7 152.7092017700732 30.38540311775106 0
274 1 10 159.73046165558821 30.139326152901802 0
275 1 9 166.5378152788622 30.081883726119322 0
276 1 12 -3.1478114223755504 32.332160620886334 0
277 1 7 3.5216991579070878 32.06265378053354 0
278 1 6 10.679098626403771 32.39314314544779 0
279 1 9 17.56801355665405 32.15294216297369 0
280 1 11 24.30208143988247 32.25714464644677 0
281 1 11 31.385946036153403 32.141863975756905 0
282 1 9 38.161178790859736 32.065450745877 0
283 1 6 45.17735608922002 32.23491410096104 0
284 1 7 52.21180246709882 32.243793964909585 0
285 1 8 59.09680307881377 32.03789740151981 0
286 1 10 66.11837365171513 32.148507289711404 0
287 1 10 72.93698280003223 32.371888720337466 0
288 1 8 80.07162897499455 32.2921524259727 0
289 1 7 86.79199060501571 32.22871612566045 0
290 1 6 93.89174044977246 32.13709739505483 0
291 1 9 100.56859982159462 32.05222660639346 0
292 1 11 107.60973554757253 32.36011232893746 0
293 1 11 114.51247278728725 32.12784905927806 0
294 1 9 121.47624834270148 32.08655643980179 0
295 1 6 128.45028124763047 32.13408069715046 0
296 1 7 135.20194161762169 32.198512446730945 0
297 1 8 142.3393406403951 32.062949326227105 0
298 1 10 149.08953763762196 32.19733997054973 0
299 1 10 156.04069161508605 32.08326490368838 0
300 1 8 163.08816584440845 32.38347278538419 0
301 1 2 -3.4520416989038916 36.32288029875677 0
302 1 6 3.807731706722738 36.309448594710545 0
303 1 7 10.657072395013236 36.389231390720504 0
304 1 8 17.531008033384982 36.04098555569344 0
305 1 10 24.424666960502822 36.216207581552645 0
306 1 10 31.35895721172944 36.09371523846408 0
307 1 8 38.42325718171757 36.325065873249216 0
308 1 7 45.13295514021903 36.323077126257104 0
309 1 6 52.22769836224724 36.20088096231665 0
310 1 9 59.18376726145885 36.30143010105368 0
311 1 11 65.96099946728211 36.03184002111029 0
312 1 11 73.11116566585851 36.28224876433539 0
313 1 9 80.00453470768838 36.10463532442536 0
314 1 6 86.79730662595442 36.20468067276355 0
315 1 7 93.59426007170919 36.13498115582061 0
316 1 8 100.82669709757722 36.05831553468227 0
317 1 10 107.46335054439433 36.15008154047951 0
318 1 10 114.48164391318409 36.35651763816549 0
319 1 8 121.28725182657963 36.058131179031996 0
320 1 7 128.54148496187284 36.1802858420363 0
321 1 6 135.27977347343068 36.32834291304599 0
322 1 9 142.17184121364414 36.25445255891418 0
323 1 11 149.28018783969804 36.37406816565935 0
324 1 11 156.1361439949663 36.25793307479325 0
325 1 9 162.89721729134044 36.14943215292184 0
326 1 7 0.024741706138140796 38.01990226057099 0
327 1 6 7.067481327302952 38.158637345793345 0
328 1 9 14.014434724891228 38.37386491778598 0
329 1 10 21.046723764598937 38.03031889943928 0
330 1 7 27.77178998082009 38.3037340140091 0
331 1 10 34.68479204840421 38.01133950313696 0
332 1 9 41.595946937680885 38.07747990918586 0
333 1 6 48.693345558005106 38.20849384956761 0
334 1 7 55.69289863839428 38.02657255962236 0
335 1 9 62.40545663725961 38.38459522554575 0
336 1 9 69.61214871750495 38.138834138579874 0
337 1 9 76.60073503225298 38.20355871235077 0
338 1 7 83.19068576274424 38.01087340641424 0
339 1 6 90.31669423875346 38.20957880906839 0
340 1 9 97.19925898138041 38.382271222281425 0
341 1 10 104.18312015082279 38.37285862642204 0
342 1 7 111.13511903902824 38.19225377986228 0
343 1 10 118.00500380713387 38.30924962536359 0
344 1 9 124.8420648820143 38.257348456446366 0
345 1 6 131.8161452100445 38.347141386774254 0
346 1 7 138.79809859871338 38.24940171224472 0
347 1 9 145.73468901458435 38.28591848207278 0
348 1 9 152.4776126985329 38.11575716737366 0
349 1 9 159.60149509993215 38.11742481164275 0
350 1 7 166.36574512754146 38.01008052669537 0
351 1 6 0.19484397218701222 42.30350358199123 0
352 1 7 7.106012044048254 42.24922713492241 0
353 1 8 14.147941813336404 42.24803044950192 0
354 1 7 21.063885680986754 42.00456206379011 0
355 1 5 27.843077511353727 42.18852410641875 0
356 1 7 34.92932913697451 42.20307771417611 0
357 1 8 41.59313725028601 42.04283986373299 0
358 1 7 48.59762251361972 42.14211314609625 0
359 1 6 55.50924216219824 42.13864541672174 0
360 1 7 62.515297611461214 42.161637356732584 0
361 1 7 69.29064395476186 42.235076583153386 0
362 1 7 76.33714935610247 42.358132965735635 0
363 1 6 83.38378163892123 42.25386300419014 0
364 1 7 90.3704798940358 42.03158504388872 0
365 1 8 97.0610444942698 42.20024381151842 0
366 1 7 103.975866061155 42.38826395066018 0
367 1 5 111.18432459546527 42.12886301997832 0
368 1 7 117.95560924199451 42.17251489190906 0
369 1 8 124.71083059964236 42.20550866874262 0
370 1 7 131.69601469004078 42.30075755623131 0
371 1 6 138.90500228275036 42.32776356968214 0
372 1 7 145.82993161838482 42.176085207351534 0
373 1 7 152.7748490301874 42.21102588728485 0
374 1 7 159.42940504565723 42.25051503579573 0
375 1 6 166.55051066723084 42.039730181018044 0
376 1 2 -3.2499432865423192 44.24674508728371 0
377 1 6 3.7360287256262734 44.06735246520106 0
378 1 9 10.790028736646372 44.29060897095347 0
379 1 10 17.628693445642117 44.09914315597326 0
380 1 5 24.425754424881383 44.226109376416055 0
381 1 5 31.481114671287273 44.15497815920574 0
382 1 10 38.492266460540634 44.33491725705327 0
383 1 9 45.38445103346438 44.22188796432795 0
384 1 6 52.21886793205919 44.11996733012384 0
385 1 6 58.993325601949934 44.03984482229929 0
386 1 6 65.96241431555957 44.19411803396363 0
387 1 6 72.84257998209601 44.05632157418988 0
388 1 6 80.00874380808743 44.22639568862276 0
389 1 6 86.99815243605428 44.29405963689634 0
390 1 9 93.91532423468252 44.14735373239737 0
391 1 10 100.7710970333635 44.34756422974597 0
392 1 5 107.75293870313044 44.18123637050364 0
393 1 5 114.55279252672321 44.24683912616343 0
394 1 10 121.49368350309028 44.06734234095496 0
395 1 9 128.2909114713145 44.27899222639471 0
396 1 6 135.2169850998729 44.36735743566184 0
397 1 6 142.12695359186722 44.159992802464814 0
398 1 6 149.10742387790972 44.10809706013528 0
399 1 6 155.99655612509852 44.280512127493125 0
400 1 6 162.8990546364674 44.39385512542922 0
401 1 2 -3.1671382939497317 48.250385968946716 0
402 1 6 3.714048711576956 48.20760521796497 0
403 1 9 10.444660717573873 48.146734298188484 0
404 1 10 17.339819184483723 48.289618193835416 0
405 1 5 24.50124019932629 48.373001138960255 0
406 1 5 31.254142132438027 48.32913255928995 0
407 1 10 38.4862535354782 48.29049769282085 0
408 1 9 45.284765656254905 48.16848263924169 0
409 1 6 52.25663007160525 48.17820481987866 0
410 1 6 59.09155550678306 48.25143701187452 0
411 1 6 66.13547948910896 48.339253987126696 0
412 1 6 72.92288361008119 48.176546062376374 0
413 1 6 79.86609385355437 48.31965793980881 0
414 1 6 86.71230309594378 48.252260888807236 0
415 1 9 93.75708463387062 48.092764680321466 0
416 1 10 100.83583445790548 48.22080767852423 0
417 1 5 107.56884824154919 48.25631704405774 0
418 1 5 114.36542809397292 48.07844943467693 0
419 1 10 121.57573279032137 48.1097305417956 0
420 1 9 128.5556174517058 48.39603537104572 0
421 1 6 135.2852793655526 48.220938280414 0
422 1 6 142.27299659981642 48.00945177746881 0
423 1 6 149.25814617136183 48.12221086146174 0
424 1 6 156.22417765711748 48.24487718189404 0
425 1 6 163.05257074192497 48.01955050526593 0
426 1 6 0.09458599174770473 50.05941252804297 0
427 1 7 7.016807559862517 50.2206988973006 0
428 1 8 14.198974061472741 50.387557462625274 0
429 1 7 21.15654751048761 50.16856925648248 0
430 1 5 27.789568867669438 50.24320196641545 0
431 1 7 34.89432298984608 50.39021828896212 0
432 1 8 41.95031674554234 50.1668577397584 0
433 1 7 48.68794066697579 50.170349123708405 0
434 1 6 55.53990086554319 50.22876579832619 0
435 1 7 62.44988624860214 50.33198654168946 0
436 1 7 69.5401826942182 50.20175544715703 0
437 1 7 76.42626108131596 50.27117500247441 0
438 1 6 83.39822342271643 50.1423831707585 0
439 1 7 90.19857844426176 50.056262688689955 0
440 1 8 96.99641028464997 50.3240459035832 0
441 1 7 104.14546594917948 50.240031801666056 0
442 1 5 111.1203479284711 50.27147100737267 0
443 1 7 117.88174596859629 50.20525297083413 0
444 1 8 125.027367273277 50.211888843250655 0
445 1 7 131.67934582986953 50.3918926097942 0
446 1 6 138.7716837128956 50.32664988379157 0
447 1 7 145.6382804182867 50.169035497796024 0
448 1 7 152.68613361520744 50.314046733874406 0
449 1 7 159.42426442974784 50.080487418799166 0
450 1 6 166.3101887868892 50.33776269001822 0
451 1 7 0.19012399966808713 54.2924216086181 0
452 1 6 7.227827791273371 54.34527941216377 0
453 1 9 13.905461334573136 54.026974540754345 0
454 1 10 20.905990041415343 54.00839299074832 0
455 1 7 27.91439370776382 54.08626730117927 0
456 1 10 34.90256834339911 54.00191632906691 0
457 1 9 41.70919825207582 54.056006618653484 0
458 1 6 48.751780930523516 54.06378080487467 0
459 1 7 55.79949556037435 54.058374303990014 0
460 1 9 62.68392853569897 54.261142724611446 0
461 1 9 69.67233663616902 54.11949285494115 0
462 1 9 76.35314564636741 54.28261072698732 0
463 1 7 83.2929818731925 54.002401883186536 0
464 1 6 90.1038002404998 54.11918231319433 0
465 1 9 97.38038397722575 54.05557292996463 0
466 1 10 104.03678946360662 54.17366130951555 0
467 1 7 111.06383972337615 54.1036641496178 0
468 1 10 118.10589715757952 54.20306117537924 0
469 1 9 125.0445779081786 54.057579989111915 0
470 1 6 131.65139846290535 54.06211468242398 0
471 1 7 138.9398978202985 54.03613332291428 0
472 1 9 145.64896451308766 54.14305244568146 0
473 1 9 152.61609916633157 54.143165383519836 0
474 1 9 159.64650784466912 54.3800514682788 0
475 1 7 166.47300291963825 54.07813396590568 0
476 1 2 -3.2521132405795066 56.2809669254662 0
477 1 6 3.617201308565744 56.10577969828696 0
478 1 7 10.638521087960246 56.01871605720118 0
479 1 8 17.638858032087725 56.13548269660076 0
480 1 10 24.448364557477664 56.3006451002214 0
481 1 10 31.56436286630547 56.185117223691314 0
482 1 8 38.23618308973169 56.33003043761643 0
483 1 7 45.14445286044424 56.18652917504804 0
484 1 6 52.18722778223054 56.23840634302387 0
485 1 9 59.27852647901994 56.03070975378163 0
486 1 11 66.08148773711942 56.10348384739228 0
487 1 11 73.0569412372014 56.19421111355656 0
488 1 9 79.75068168279482 56.02912068811771 0
489 1 6 86.90599858943615 56.21134490291334 0
490 1 7 93.67961740002136 56.11269519032865 0
491 1 8 100.69210131912656 56.1112158350985 0
492 1 10 107.65539133881782 56.233795001865325 0
493 1 10 114.36746140282692 56.09538533320688 0
494 1 8 121.2501818499792 56.34832241879468 0
495 1 7 128.4170133667131 56.08290974947923 0
496 1 6 135.25414455549804 56.373131553922924 0
497 1 9 142.40493203456913 56.32554059546084 0
498 1 11 149.073986826602 56.26109154766652 0
499 1 11 155.96853741771287 56.078527877721825 0
500 1 9 163.1722562630416 56.203894117825925 0
501 1 12 -3.160041380130308 60.037216634810605 0
502 1 7 3.700098058880138 60.281344872023794 0
503 1 6 10.714513808109395 60.23465101515727 0
504 1 9 17.43167248957187 60.29140166901063 0
505 1 11 24.6333455151239 60.36322968307995 0
506 1 11 31.393891679065906 60.26381359177368 0
507 1 9 38.180394384248636 60.13355244465933 0
508 1 6 45.26889165792792 60.22597657768866 0
509 1 7 52.00587223521781 60.32448516911322 0
510 1 8 59.14279005759334 60.14611843518699 0
511 1 10 66.19641224597291 60.0155548548761 0
512 1 10 72.92619479803646 60.006768518448666 0
513 1 8 80.04550773840984 60.13853229495071 0
514 1 7 86.75419867061684 60.07978560552067 0
515 1 6 93.81308970432048 60.355112307881456 0
516 1 9 100.82562151731146 60.190898789150125 0
517 1 11 107.7144467580618 60.008135363827314 0
518 1 11 114.50259895506196 60.05187198438976 0
519 1 9 121.59144302467325 60.0462524141497 0
520 1 6 128.46728922440616 60.30708167638239 0
521 1 7 135.3141937922386 60.19568179776382 0
522 1 8 142.31521059767917 60.02041970226406 0
523 1 10 149.25299102983396 60.209195163815956 0
524 1 10 156.16435980595958 60.28305638188845 0
525 1 8 162.94167609323924 60.2840729593471 0
526 1 9 0.33782143449721463 62.341683010732105 0
527 1 6 7.2655258566209575 62.1694893922729 0
528 1 7 14.22617328283569 62.11822024033997 0
529 1 9 21.028220083040857 62.28642128070622 0
530 1 9 27.897247728042462 62.10314458634186 0
531 1 9 34.698619861749066 62.32701213256252 0
532 1 7 41.74152580383202 62.094894651764896 0
533 1 6 48.51789092894328 62.3906224796913 0
534 1 9 55.524048771912085 62.139061188462165 0
535 1 10 62.60079273877973 62.02135447385063 0
536 1 7 69.6231512566643 62.25634281312072 0
537 1 10 76.46194812416189 62.28448884855735 0
538 1 9 83.27946508942549 62.35979891259109 0
539 1 6 90.37260062328052 62.06777556132618 0
540 1 7 97.37704731087055 62.171139360201 0
541 1 9 104.15652273966386 62.229887757025665 0
542 1 9 111.07632780400225 62.08233261254715 0
543 1 9 117.87645370901444 62.32422054512297 0
544 1 7 124.95410864541033 62.182827760524845 0
545 1 6 132.01674001641084 62.27278294883294 0
546 1 9 138.75727206081402 62.32375298005385 0
547 1 10 145.6056291678316 62.13634447602305 0
548 1 7 152.52559886923257 62.20892497496563 0
549 1 10 159.65046768265543 62.11284574502981 0
550 1 9 166.27761876277052 62.2492945542193 0
551 1 8 0.27001179988360713 66.09006243859918 0
552 1 7 6.984629340770896 66.39283440023262 0
553 1 6 14.164956538292099 66.00100841597899 0
554 1 7 21.152608286527553 66.28937582742674 0
555 1 7 27.98308349436203 66.06074151871762 0
556 1 7 35.00960544082548 66.09569225982892 0
557 1 6 41.822729382363086 66.26711988146748 0
558 1 7 48.61301639684431 66.16281744043667 0
559 1 8 55.471638558558105 66.14483725142588 0
560 1 7 62.44736053559202 66.23014798875654 0
561 1 5 69.44750471004765 66.30991672468907 0
562 1 7 76.5864723383884 66.2233396740422 0
563 1 8 83.3764012441937 66.02817677530686 0
564 1 7 90.30985776936 66.11108298954532 0
565 1 6 97.26031304985148 66.02075033100051 0
566 1 7 104.15117947794235 66.20953269186894 0
567 1 7 110.86091495699186 66.1906677424737 0
568 1 7 117.78536128501369 66.12598071705276 0
569 1 6 124.92341166235352 66.10697234426635 0
570 1 7 131.78313969579585 66.17742753151325 0
571 1 8 138.76578406496222 66.19567367206716 0