
14309 atoms
14896 bonds
16659 angles
32 atom types
7 bond types
22 angle types

-5.680607966083864 171.52447279080386 xlo xhi
-2.0 148.0 ylo yhi
-4 4 zlo zhi


Masses

1 0.00022589610676078083
2 0.00041072019411051065
3 0.0005236682474909012
4 0.0004928642329326127
5 0.0005134002426381383
6 0.0005750082717547149
7 0.0005442042571964267
8 0.00045179221352156167
9 0.00043125620381603613
10 0.0006366163008712915
11 0.0007187603396933936
12 0.0007598323591044447
13 0.000739296349398919
14 0.0008214403882210213
15 0.0008625124076320724
16 0.0007392963493989192
17 0.0006776883202823425
18 0.0007803683688099703
19 0.0008009043785154958
20 0.0007803683688099702
21 0.0005339362523436638
22 0.0005544722620491893
23 0.0005031322377853756
24 0.00048259622807985005
25 0.00018482408734972976
26 0.00045179221352156167
27 0.0003696481746994595
28 0.0005339362523436638
29 0.0005134002426381383
30 0.0004928642329326127
31 0.0005750082717547149
32 0.00041072019411051065

Pair Coeffs

1 0.40509979849834776 0.44544935907016964 0.5
2 0.40509979849834776 0.44544935907016964 0.5
3 0.40509979849834776 0.44544935907016964 0.5
4 0.40509979849834776 0.44544935907016964 0.5
5 0.40509979849834776 0.44544935907016964 0.5
6 0.40509979849834776 0.44544935907016964 0.5
7 0.40509979849834776 0.44544935907016964 0.5
8 0.40509979849834776 0.44544935907016964 0.5
9 0.40509979849834776 0.44544935907016964 0.5
10 0.40509979849834776 0.44544935907016964 0.5
11 0.40509979849834776 0.44544935907016964 0.5
12 0.40509979849834776 0.44544935907016964 0.5
13 0.40509979849834776 0.44544935907016964 0.5
14 0.40509979849834776 0.44544935907016964 0.5
15 0.40509979849834776 0.44544935907016964 0.5
16 0.40509979849834776 0.44544935907016964 0.5
17 0.40509979849834776 0.44544935907016964 0.5
18 0.40509979849834776 0.44544935907016964 0.5
19 0.40509979849834776 0.44544935907016964 0.5
20 0.40509979849834776 0.44544935907016964 0.5
21 0.40509979849834776 0.44544935907016964 0.5
22 0.40509979849834776 0.44544935907016964 0.5
23 0.40509979849834776 0.44544935907016964 0.5
24 0.40509979849834776 0.44544935907016964 0.5
25 0.40509979849834776 0.44544935907016964 0.5
26 0.40509979849834776 0.44544935907016964 0.5
27 0.40509979849834776 0.44544935907016964 0.5
28 0.40509979849834776 0.44544935907016964 0.5
29 0.40509979849834776 0.44544935907016964 0.5
30 0.40509979849834776 0.44544935907016964 0.5
31 0.40509979849834776 0.44544935907016964 0.5
32 0.40509979849834776 0.44544935907016964 0.5

Bond Coeffs

1 90.35844270431234 0.5
2 73.92963493989191 0.5
3 106.78725046873276 0.5
4 102.68004852762766 0.5
5 98.57284658652254 0.5
6 115.00165435094299 0.5
7 82.14403882210213 0.5

Angle Coeffs

1 6.147874114037023 180
2 3.3672428468316977 180
3 10.14791842865465 180
4 9.02146253116346 180
5 7.981612673971431 180
6 12.674505310982417 180
7 4.618988815955691 180
8 4.351262358381544 120
9 9.551593352473047 120
10 7.981612673971431 120
11 8.935339131065083 120
12 12.674505310982417 120
13 10.540444712675322 120
14 6.147874114037023 120
15 5.274881264725031 120
16 7.6569611272898745 120
17 8.469740774274413 120
18 9.02146253116346 120
19 11.271357283233499 120
20 10.14791842865465 120
21 7.31249062016736 120
22 4.618988815955691 120

Atoms

1 1 1 -3.0890734306434933 0.118225997477523 0
2 1 2 3.859893874529982 0.0938574655564981 0
3 1 3 10.766797214757545 0.16574387336633556 0
4 1 4 17.673484848883774 0.14820146882805707 0
5 1 5 24.473091590933794 0.2067522588136741 0
6 1 6 31.35062438360622 0.19522047585709634 0
7 1 7 38.38721263628695 0.19427892759573906 0
8 1 8 45.060803186062905 0.25168223740290835 0
9 1 9 52.16450487404448 0.38626451510049553 0
10 1 9 59.19686728345271 0.22875824606643103 0
11 1 8 65.95203685546001 0.3672801019056806 0
12 1 7 72.89114278152967 0.388662634641073 0
13 1 6 79.79974664089036 0.3014181396506473 0
14 1 5 86.92059417451554 0.23074521693017266 0
15 1 4 93.67479903818112 0.002623357673148075 0
16 1 3 100.49277871266862 0.34558734837467725 0
17 1 2 107.64561750637733 0.32343702055375684 0
18 1 8 114.65297565158693 0.21789045664361564 0
19 1 8 121.39916866911852 0.3771704085702409 0
20 1 8 128.28828949075776 0.35089181363926336 0
21 1 8 135.24167870078412 0.06784605966173367 0
22 1 8 142.15993156942096 0.016768801971244064 0
23 1 8 149.06229475090507 0.19145701342823102 0
24 1 8 155.9277200505298 0.2397823055615302 0
25 1 8 162.90486274460216 0.17180095742945323 0
26 1 10 0.17250038400790038 2.3978517264437382 0
27 1 11 7.132161801290866 2.2911299552294655 0
28 1 12 14.067225598626472 2.1745984589666607 0
29 1 13 20.945645115427805 2.0388048179196074 0
30 1 14 27.858493132800888 2.382528208481384 0
31 1 15 34.711928166673616 2.1707818204962366 0
32 1 16 41.859745694383896 2.000971398725039 0
33 1 17 48.62994910381615 2.0289690444816357 0
34 1 10 55.66474673443205 2.342218301453551 0
35 1 17 62.3877511760559 2.1606208671519855 0
36 1 16 69.38110611466729 2.2330708128042898 0
37 1 15 76.23802053901548 2.0075929232848106 0
38 1 14 83.42545773748918 2.093921263907098 0
39 1 13 90.22910902052953 2.285294769943975 0
40 1 12 97.10302854941334 2.2479355353345465 0
41 1 11 104.02833962116577 2.374617434138907 0
42 1 10 111.13267885417841 2.1758524754800717 0
43 1 11 118.0674990413788 2.1238551079270915 0
44 1 11 124.7689293243256 2.1818021312631335 0
45 1 11 131.89120838037866 2.013275212632317 0
46 1 11 138.7320152687207 2.1779404302152447 0
47 1 11 145.61663144125117 2.1710591850673855 0
48 1 11 152.61379978488313 2.0921745315658073 0
49 1 11 159.72538184045513 2.2869528605070264 0
50 1 10 166.5454980279594 2.241156984155218 0
51 1 11 0.3496597681929002 6.0603051475529615 0
52 1 10 6.981058273709493 6.3818320486984215 0
53 1 18 14.035511319116834 6.1403948224393865 0
54 1 13 20.877846144507203 6.2257995790075595 0
55 1 18 28.072512517245837 6.332908827904414 0
56 1 15 35.01046928870426 6.231820038236633 0
57 1 19 41.86172101760904 6.244173544125484 0
58 1 17 48.73071744069532 6.20624898238454 0
59 1 17 55.71596305292091 6.3720101406075615 0
60 1 17 62.663870747719756 6.018606272352826 0
61 1 19 69.3368874193067 6.128541843520497 0
62 1 15 76.35271961598772 6.069214175294339 0
63 1 18 83.19705915342838 6.255103321909264 0
64 1 13 90.16760283937916 6.1497829297911 0
65 1 18 97.03398687736137 6.237278981128525 0
66 1 10 104.01734621239498 6.009645545601821 0
67 1 11 110.8521290170103 6.047849456440072 0
68 1 18 117.85907869978496 6.367519113332514 0
69 1 18 124.89664670625811 6.269475809251949 0
70 1 18 131.92024599144057 6.13036111407902 0
71 1 18 138.9505124247544 6.1005901656571835 0
72 1 18 145.79180044315282 6.2724166008226785 0
73 1 18 152.5118996719271 6.089133617365534 0
74 1 18 159.6438859877417 6.0180805145856615 0
75 1 11 166.42781544611086 6.276343987679396 0
76 1 3 -3.160888133101441 8.043623178698281 0
77 1 10 3.647416981980348 8.163029184318571 0
78 1 11 10.54790249837048 8.06445044412713 0
79 1 12 17.51697934637158 8.107740585233907 0
80 1 13 24.467652431507023 8.151522117478022 0
81 1 14 31.453370772450345 8.125820923641802 0
82 1 15 38.266161656980124 8.335024605104637 0
83 1 16 45.057782117586136 8.177216020960943 0
84 1 17 52.17671187092723 8.397184561874308 0
85 1 17 58.98558283121301 8.225064771887482 0
86 1 16 65.84788892055928 8.095446234129824 0
87 1 15 72.82809526726894 8.021417246991087 0
88 1 14 79.88515917720963 8.052163915243623 0
89 1 13 86.8352087063841 8.144276620970574 0
90 1 12 93.56020053165636 8.20804864875967 0
91 1 11 100.64889065368291 8.059372426466226 0
92 1 10 107.49919342671403 8.113782399933108 0
93 1 18 114.32843775397677 8.06030903915585 0
94 1 12 121.50800436848473 8.189249946618757 0
95 1 12 128.4246620143594 8.282257521869948 0
96 1 12 135.39505214953516 8.029095211132752 0
97 1 12 142.38320911829433 8.082638787875224 0
98 1 12 149.3193438907399 8.067451497150206 0
99 1 12 155.99564352415538 8.142564580451157 0
100 1 18 163.1898934482647 8.24699511116853 0
101 1 5 -3.3219847418077975 12.326838256864935 0
102 1 11 3.628169125008654 12.24156328001607 0
103 1 10 10.586647719314701 12.057832275291762 0
104 1 18 17.577085051541573 12.18300055788054 0
105 1 13 24.399066096003477 12.141341493291804 0
106 1 18 31.542184960981956 12.089579930630075 0
107 1 15 38.44182441688022 12.259806408885778 0
108 1 19 45.40361810113338 12.352673344775479 0
109 1 16 52.102302474246 12.050927164074178 0
110 1 16 59.25874519106337 12.080227147539219 0
111 1 19 66.17322587611793 12.315649503630597 0
112 1 15 73.07254095254135 12.258187364414734 0
113 1 18 79.7004366657988 12.12861449539064 0
114 1 13 86.97440663475071 12.047431657716842 0
115 1 18 93.89794323737843 12.006660234293351 0
116 1 10 100.46773924232747 12.390477629229625 0
117 1 11 107.69150073882679 12.05428975815757 0
118 1 12 114.64942448151982 12.164917721124183 0
119 1 13 121.29986357114107 12.191570357762885 0
120 1 13 128.4245520372756 12.088913308275785 0
121 1 13 135.46446190464513 12.158227157503179 0
122 1 13 142.41055344250066 12.079278621279004 0
123 1 13 149.09566069421493 12.392822151083841 0
124 1 13 156.06136141786774 12.320829230990826 0
125 1 12 162.8580029597109 12.125847828365579 0
126 1 18 0.11953653672906435 14.128936929131132 0
127 1 10 7.065460815097735 14.344936004969297 0
128 1 11 13.97527062001835 14.15600486633028 0
129 1 12 20.80964425830519 14.152616649591003 0
130 1 13 27.719478249168457 14.300136237722555 0
131 1 14 34.65071775373579 14.373691488626829 0
132 1 15 41.70957320420532 14.225940035930003 0
133 1 19 48.5204649138617 14.061963111846852 0
134 1 19 55.68538381304433 14.304380364872637 0
135 1 19 62.37887374732628 14.094353656690846 0
136 1 15 69.38823310165111 14.09535083384663 0
137 1 14 76.25536087596052 14.352887081065935 0
138 1 13 83.49398048853963 14.259845207112134 0
139 1 12 90.39375182959692 14.343813785984356 0
140 1 11 97.0928890266455 14.156804838664446 0
141 1 10 103.9622239353726 14.35497778559684 0
142 1 18 110.90361542434285 14.081129122843949 0
143 1 13 117.83955399254064 14.09102706956476 0
144 1 13 125.01096143034759 14.301734711698257 0
145 1 13 131.9349074015427 14.264535593993736 0
146 1 13 138.8894548156914 14.353542187776828 0
147 1 13 145.84708259608038 14.257231863093415 0
148 1 13 152.55005493269815 14.240082982830936 0
149 1 13 159.58430778302213 14.284337899368436 0
150 1 18 166.45426917979464 14.376300347860168 0
151 1 12 0.37048387891721574 18.072451205417394 0
152 1 11 7.270362899469298 18.218102316261575 0
153 1 10 14.180568710963614 18.077073617875918 0
154 1 18 21.104290568920565 18.362795217860814 0
155 1 13 28.08923285434065 18.28495679019789 0
156 1 18 34.92022647673213 18.059563459942026 0
157 1 15 41.83075539712932 18.39001922659176 0
158 1 15 48.63928411327485 18.391523269336428 0
159 1 15 55.76473508728488 18.208053566505903 0
160 1 15 62.40112174884828 18.31941183063798 0
161 1 15 69.61022728817277 18.069687661568544 0
162 1 18 76.39153016190198 18.325569991614035 0
163 1 13 83.40970401293491 18.369616381553204 0
164 1 18 90.31915786328389 18.018504113713895 0
165 1 10 97.35048041240404 18.346359188122413 0
166 1 11 104.04462449367182 18.031127304806837 0
167 1 12 111.17380840806669 18.2236359855689 0
168 1 13 117.99466475032817 18.0871361084606 0
169 1 20 124.98538288443929 18.25683039166036 0
170 1 20 131.75024953798345 18.157776176035828 0
171 1 20 138.89852854096128 18.092279287545075 0
172 1 20 145.6948545824413 18.20740048997679 0
173 1 20 152.54034365834852 18.027144949388013 0
174 1 13 159.73924067344564 18.048280385234897 0
175 1 12 166.42859439186643 18.135731876606332 0
176 1 4 -3.350929032955258 20.3197282907913 0
177 1 18 3.7001476090770864 20.104591895176235 0
178 1 10 10.657476106887696 20.184406178246434 0
179 1 11 17.454917186286412 20.109500591989868 0
180 1 12 24.555736510316535 20.11811688813993 0
181 1 13 31.262653298309033 20.258057967272673 0
182 1 14 38.19244821652175 20.39806913556685 0
183 1 15 45.28167100350627 20.26104389959333 0
184 1 15 52.36151163483785 20.019113401995696 0
185 1 15 58.973013048003764 20.233382208848184 0
186 1 15 66.01168349578097 20.09513154304971 0
187 1 14 72.83457370421733 20.184013816491333 0
188 1 13 79.6783312447362 20.397054194914237 0
189 1 12 86.6321043801002 20.12696841344114 0
190 1 11 93.80209166963027 20.27424991182261 0
191 1 10 100.56659013118129 20.34657991387823 0
192 1 18 107.51512858442588 20.04493685132559 0
193 1 13 114.38814441671619 20.386626560886324 0
194 1 18 121.63376023293588 20.088346309609133 0
195 1 14 128.25639451828698 20.192905167537003 0
196 1 14 135.4652813967682 20.213519009142548 0
197 1 14 142.10285522151253 20.36900018367333 0
198 1 14 149.31961063779033 20.06227147655323 0
199 1 18 156.0776420587507 20.052779010519647 0
200 1 13 163.18531516307118 20.38443525244834 0
201 1 4 -3.0676680116165813 24.2756935329349 0
202 1 12 3.6455588990461405 24.151111625389756 0
203 1 11 10.401148965327902 24.268690614466724 0
204 1 10 17.52195658034486 24.26648171568933 0
205 1 18 24.562985850154277 24.123612247795624 0
206 1 13 31.258973484102054 24.039878634201195 0
207 1 18 38.24983520270576 24.38150274690587 0
208 1 14 45.03391740496085 24.140316275547224 0
209 1 14 52.218899418209546 24.0266894709611 0
210 1 14 59.2141850816862 24.07184306391989 0
211 1 14 66.20924539994878 24.20007853341172 0
212 1 18 73.03336168305975 24.097508798335678 0
213 1 13 79.89136611505641 24.128874456939233 0
214 1 18 86.85690245038832 24.28474566149178 0
215 1 10 93.80297982035161 24.05873589630181 0
216 1 11 100.82562912046522 24.302158058264823 0
217 1 12 107.7507868210723 24.22759612453921 0
218 1 13 114.5526026361589 24.210014711668585 0
219 1 14 121.47621457105288 24.011967840590273 0
220 1 15 128.36369885087092 24.38254647465774 0
221 1 15 135.19033774613828 24.0080062340815 0
222 1 15 142.21216784883364 24.257804440782156 0
223 1 15 149.04606519416117 24.275179295649316 0
224 1 14 156.22326122872727 24.04384138359584 0
225 1 13 162.89751829473926 24.242328424077424 0
226 1 13 0.23260897480964804 26.04616507933263 0
227 1 18 7.152942700084381 26.052925139830027 0
228 1 10 14.078312161316612 26.30884309887939 0
229 1 11 20.874553201132237 26.07456345812657 0
230 1 12 27.962090108223993 26.161206649272966 0
231 1 13 34.92011012504418 26.20464237370516 0
232 1 20 41.62221445169524 26.016313910371082 0
233 1 20 48.55589518238398 26.251966252785984 0
234 1 20 55.511779208342645 26.17993290508207 0
235 1 20 62.450380126450995 26.04385686918968 0
236 1 20 69.34726426653828 26.10107844161514 0
237 1 13 76.21588564262244 26.041736437243564 0
238 1 12 83.30837989158924 26.25583419745907 0
239 1 11 90.43884338537589 26.35995006552733 0
240 1 10 97.26983436993129 26.08343829047916 0
241 1 18 104.10478499281797 26.25815318483784 0
242 1 13 111.12856482515714 26.33295869738249 0
243 1 18 117.96710302648674 26.27658808487234 0
244 1 15 124.80529519511045 26.369602264697242 0
245 1 15 131.79997812732896 26.031810942052253 0
246 1 15 138.92701583026965 26.39747335682539 0
247 1 15 145.74845162317345 26.04350621963331 0
248 1 15 152.53950811387568 26.176571204213953 0
249 1 18 159.37665756644392 26.326363292283578 0
250 1 13 166.28461568555636 26.218915084070048 0
251 1 13 0.26720520354903715 30.27557324361861 0
252 1 12 6.993254436204299 30.093091460911857 0
253 1 11 14.094805174521268 30.38299456304781 0
254 1 10 21.025219321097246 30.380769019493002 0
255 1 18 28.01254952414113 30.251010174705126 0
256 1 13 35.03300668147068 30.15382523671855 0
257 1 13 41.79977603430889 30.36764238570485 0
258 1 13 48.65042588784164 30.11909794218232 0
259 1 13 55.50590703745568 30.129967358260828 0
260 1 13 62.64500151866048 30.266998528960738 0
261 1 13 69.65410828816914 30.062939764472798 0
262 1 13 76.4202626445558 30.003216742277104 0
263 1 18 83.25207037971833 30.363887707101203 0
264 1 10 90.23420979024067 30.1098414354374 0
265 1 11 97.3648944385515 30.2671275151659 0
266 1 12 103.92807165846166 30.189668462188756 0
267 1 13 111.17404100812459 30.399815990460475 0
268 1 14 117.82482467325552 30.120861111133262 0
269 1 15 124.95661785855748 30.27409209805924 0
270 1 19 131.98630538719996 30.354280721052348 0
271 1 19 138.58187597330465 30.146624126276 0
272 1 19 145.76022857620674 30.297655403255508 0
273 1 15 152.79958508471177 30.313890716840753 0
274 1 14 159.51718846556318 30.092437427442704 0
275 1 13 166.42620114504228 30.247165369205188 0
276 1 5 -3.2192641446435823 32.19758040807347 0
277 1 13 3.6385795393765687 32.03985828705117 0
278 1 18 10.501782612381293 32.362621883837484 0
279 1 10 17.377472836402855 32.32869121947487 0
280 1 11 24.53790475447646 32.23547462470786 0
281 1 12 31.37552856941264 32.22615349075735 0
282 1 13 38.11972177847919 32.39667647426276 0
283 1 13 45.15476762843475 32.206611484303345 0
284 1 13 52.24227355067877 32.16066559533895 0
285 1 13 59.21502631094692 32.37492634864652 0
286 1 13 66.08935993552538 32.0852968140756 0
287 1 13 72.96916584292012 32.235913053287824 0
288 1 12 79.9647877074014 32.164053536219456 0
289 1 11 86.73913394634961 32.22105443966085 0
290 1 10 93.69723644186314 32.14466471863672 0
291 1 18 100.55837185991267 32.26084273800274 0
292 1 13 107.74232741925908 32.32551552207571 0
293 1 18 114.3615714527477 32.295463557273294 0
294 1 15 121.52065676664637 32.261452181058694 0
295 1 19 128.32848343876339 32.26122199466845 0
296 1 16 135.2487229947089 32.13236325435014 0
297 1 16 142.11698347424405 32.29190417525825 0
298 1 19 149.261588141286 32.39385070225435 0
299 1 15 156.24151355354996 32.36636089851989 0
300 1 18 163.01596114462873 32.0824057250927 0
301 1 21 -3.232897376129092 36.35508174271606 0
302 1 13 3.6506411428053727 36.285062842461166 0
303 1 12 10.474508320290045 36.18619880941941 0
304 1 11 17.715246734572833 36.16332956633826 0
305 1 10 24.428813551119177 36.37753421155248 0
306 1 18 31.499326625578277 36.29152027475992 0
307 1 12 38.30546528267797 36.02560835645939 0
308 1 12 45.40809854882525 36.3660922550847 0
309 1 12 51.97870882687783 36.1036808568823 0
310 1 12 59.16448898554745 36.01414444745754 0
311 1 12 66.20511046778732 36.14386566190827 0
312 1 12 72.80771335468326 36.334151837846285 0
313 1 18 79.90370314009087 36.10020514017479 0
314 1 10 86.70208112234283 36.312841306668396 0
315 1 11 93.69127697175989 36.30966737766956 0
316 1 12 100.80844926537665 36.08835250241672 0
317 1 13 107.73388927484963 36.00981645333965 0
318 1 14 114.33405884558822 36.07645423642733 0
319 1 15 121.32294532869905 36.23343914939862 0
320 1 16 128.41560194268 36.378883496308625 0
321 1 17 135.2648645459773 36.263479210344144 0
322 1 17 142.05695115504173 36.07749574600652 0
323 1 16 149.16869033911175 36.29169720473008 0
324 1 15 155.9771711843933 36.38717076639275 0
325 1 14 163.1888325355992 36.19287589236446 0
326 1 18 0.346835405089074 38.033907147275976 0
327 1 13 7.005380457072858 38.136190418331765 0
328 1 18 14.116935129673006 38.22900935984104 0
329 1 10 21.056399077057346 38.339067635269565 0
330 1 11 27.757243189290126 38.0572377296816 0
331 1 18 34.909467425235874 38.349471240435996 0
332 1 18 41.82728263059311 38.31616285498659 0
333 1 18 48.58360816232362 38.23417681591935 0
334 1 18 55.57707401384016 38.383245110083045 0
335 1 18 62.73035134156956 38.146892627282654 0
336 1 18 69.60593977778102 38.28098798559781 0
337 1 18 76.45131904108491 38.202739191909366 0
338 1 11 83.43746867840221 38.08481841354327 0
339 1 10 90.07342970520675 38.01918361051807 0
340 1 18 97.33505230885213 38.32363007681583 0
341 1 13 104.06160233459103 38.23459985138251 0
342 1 18 111.2383679744794 38.070936467795164 0
343 1 15 118.11515590688902 38.310103251788625 0
344 1 19 124.71173696326213 38.24184977084582 0
345 1 17 131.8182733468209 38.35455041355039 0
346 1 17 138.8288526611856 38.30149643592376 0
347 1 17 145.83817383558326 38.33871899688536 0
348 1 19 152.50566443972824 38.23905497402519 0
349 1 15 159.64041758364073 38.28536003425331 0
350 1 18 166.53452135070148 38.25683420809986 0
351 1 14 0.28793749493784243 42.345991248295284 0
352 1 13 7.2637157668771515 42.30182441046162 0
353 1 12 13.914686643715179 42.15729321464058 0
354 1 11 21.022212501476115 42.08339230199901 0
355 1 10 27.75406551159471 42.37650319197169 0
356 1 11 34.69643371817419 42.39462180574364 0
357 1 11 41.879203475368016 42.14313757078391 0
358 1 11 48.71965835951484 42.263660027795154 0
359 1 11 55.6528625642534 42.367122521015894 0
360 1 11 62.638225518893336 42.093583944570966 0
361 1 11 69.48919451389966 42.14643775196442 0
362 1 11 76.3721703829342 42.13089482338135 0
363 1 10 83.44461397819425 42.37763828499742 0
364 1 11 90.12947085115319 42.185888415185445 0
365 1 12 97.27085694940426 42.34609019022883 0
366 1 13 104.17849236642644 42.05427532179001 0
367 1 14 111.11507054556711 42.2267781874668 0
368 1 15 118.0696302997268 42.17667250331844 0
369 1 16 125.03005382872631 42.07798199627787 0
370 1 17 131.95518655639435 42.13956689052603 0
371 1 10 138.60193813115458 42.28027266736904 0
372 1 17 145.7585420798152 42.03041014841059 0
373 1 16 152.80640621132451 42.222874279507664 0
374 1 15 159.70155484527263 42.17463451000184 0
375 1 14 166.48356213919695 42.350137875360446 0
376 1 6 -3.203870024139846 44.086623247632055 0
377 1 18 3.592857627147638 44.3045362731038 0
378 1 13 10.618884776638211 44.0275316536739 0
379 1 18 17.691898929980784 44.10589370861058 0
380 1 10 24.369980179173023 44.27188644830317 0
381 1 10 31.258174372365453 44.22101870846388 0
382 1 10 38.366546864607415 44.23269537707572 0
383 1 10 45.09033743461539 44.249900268209046 0
384 1 10 52.00517102451344 44.25291585105097 0
385 1 10 58.92129433856363 44.34307208919976 0
386 1 10 65.96240834056535 44.184729230125306 0
387 1 10 72.91977017471385 44.05713707320543 0
388 1 10 80.01571879286195 44.38702493446794 0
389 1 10 86.80925652351789 44.218037304878564 0
390 1 18 93.73854454285005 44.30492270386937 0
391 1 13 100.72696727084279 44.20023762723363 0
392 1 18 107.46983875861434 44.211249646999 0
393 1 15 114.43105682982949 44.090726984983725 0
394 1 19 121.45506955763476 44.135580701017744 0
395 1 17 128.2568995375552 44.021807867806764 0
396 1 10 135.2328950642816 44.119678301317286 0
397 1 10 142.03226259821358 44.29549989294863 0
398 1 17 149.24660650611534 44.08302625868136 0
399 1 19 155.95290070862066 44.02420674543183 0
400 1 15 163.10993784315662 44.30093655062293 0
401 1 6 -3.3967631087615207 48.1343848891749 0
402 1 18 3.78144694685921 48.2181529707551 0
403 1 13 10.395084229554852 48.23426359076032 0
404 1 18 17.441375771238725 48.3826608789365 0
405 1 10 24.4294960743593 48.282063947447384 0
406 1 10 31.567355902917193 48.062367778016814 0
407 1 10 38.34812481623679 48.3697653567661 0
408 1 10 45.10263258314995 48.364032622682835 0
409 1 10 52.14468197090635 48.22734561710987 0
410 1 10 59.0042237924783 48.377524175910224 0
411 1 10 65.97215296678462 48.18519274650837 0
412 1 10 72.98942344997828 48.211461631734004 0
413 1 10 79.91271541450045 48.037947015919755 0
414 1 10 86.64932564079616 48.13135635819602 0
415 1 18 93.8254875749457 48.15178320970474 0
416 1 13 100.80357907098572 48.09986597564854 0
417 1 18 107.4586787723531 48.24062062834729 0
418 1 15 114.43471882782163 48.24437229431374 0
419 1 19 121.35930616767621 48.002141248621776 0
420 1 17 128.51790699557176 48.05115293418724 0
421 1 10 135.30209757925928 48.14255774664775 0
422 1 10 142.24220418624796 48.287646037564755 0
423 1 17 149.13008662224422 48.37880618016758 0
424 1 19 156.11959305926797 48.374812320889085 0
425 1 15 163.10541247324755 48.003499416668596 0
426 1 14 0.03202594664947678 50.035602523782 0
427 1 13 7.244759461889422 50.06744990535193 0
428 1 12 14.095665024709234 50.01126685551182 0
429 1 11 20.895839711132535 50.269074074817254 0
430 1 10 27.7543587905924 50.205918549282615 0
431 1 11 34.9902587614133 50.26388051916019 0
432 1 11 41.80017745762484 50.10905468089473 0
433 1 11 48.80206347256298 50.33717404027489 0
434 1 11 55.67767369601232 50.115090510852994 0
435 1 11 62.6319197544555 50.330685997361684 0
436 1 11 69.350912760729 50.17460873938244 0
437 1 11 76.34753120020241 50.04543961528321 0
438 1 10 83.29525038210781 50.36062638685455 0
439 1 11 90.42908724836967 50.21540478291291 0
440 1 12 97.0524006818483 50.27299181993291 0
441 1 13 103.94924804044244 50.02594456729597 0
442 1 14 110.95704619834355 50.107177566377224 0
443 1 15 118.11169868959799 50.338710850093015 0
444 1 16 125.02411199533684 50.032055997930364 0
445 1 17 131.79829847606715 50.37423839394744 0
446 1 10 138.95607215471873 50.331013841847 0
447 1 17 145.82515803922084 50.035839823417206 0
448 1 16 152.54687760003478 50.36846704510009 0
449 1 15 159.44658759372922 50.346329268379684 0
450 1 14 166.65182123381217 50.3512529604593 0
451 1 18 0.2734180630364346 54.16534294271378 0
452 1 13 7.249184683631297 54.03804528241585 0
453 1 18 14.07966958364976 54.146466676273135 0
454 1 10 20.881897465477095 54.19126257221438 0
455 1 11 27.92761822393122 54.12381990502379 0
456 1 18 34.81599985506735 54.15450824435668 0
457 1 18 41.62877433676687 54.2973707911852 0
458 1 18 48.51622277350538 54.21408864197658 0
459 1 18 55.81063578497259 54.032618136282466 0
460 1 18 62.653719275761254 54.07790629450365 0
461 1 18 69.6187461086543 54.04986777989838 0
462 1 18 76.33624810705031 54.30473899776453 0
463 1 11 83.34020281534056 54.034563350155345 0
464 1 10 90.2660703184434 54.23326812208518 0
465 1 18 97.13715266082247 54.31199239782728 0
466 1 13 104.04571210351315 54.02154564184815 0
467 1 18 111.2228666611413 54.028985711652574 0
468 1 15 118.01070042912995 54.19144085912491 0
469 1 19 124.80160808990453 54.19707919255466 0
470 1 17 132.03381142583584 54.14751341442242 0
471 1 17 138.6498321953631 54.048432805562406 0
472 1 17 145.7044816701736 54.366414382283324 0
473 1 19 152.56108318344397 54.177589416589335 0
474 1 15 159.6242457529806 54.10139342088247 0
475 1 18 166.65548965876974 54.31422769421798 0
476 1 21 -3.1050207926653055 56.228371719036744 0
477 1 13 3.809099129616645 56.00967391662323 0
478 1 12 10.564203597685397 56.30221828398796 0
479 1 11 17.565173630697366 56.014074514423896 0
480 1 10 24.327759565439873 56.311119612996094 0
481 1 18 31.569619114168084 56.13444562864607 0
482 1 12 38.379519715331135 56.291964566078 0
483 1 12 45.10778230041576 56.265927119544514 0
484 1 12 52.17966091248141 56.30623592540358 0
485 1 12 59.06045789080358 56.27193252841154 0
486 1 12 65.93775370705349 56.37726372836598 0
487 1 12 72.90317859995082 56.095172058761925 0
488 1 18 79.9759277714832 56.0543342575698 0
489 1 10 86.89810443931873 56.249024251899876 0
490 1 11 93.5530151851908 56.392669811766915 0
491 1 12 100.62390612648342 56.39950935311003 0
492 1 13 107.62297136370026 56.32152113902259 0
493 1 14 114.45799087042313 56.278850276266624 0
494 1 15 121.55669039881906 56.2020679723281 0
495 1 16 128.2268301219635 56.28076063485305 0
496 1 17 135.16963466158109 56.149633061307895 0
497 1 17 142.320276657272 56.305148235492396 0
498 1 16 149.26242081089057 56.344709535144524 0
499 1 15 155.90997999252184 56.24750421360238 0
500 1 14 163.19502900683335 56.23395315778 0
501 1 5 -3.4136299654100775 60.33768261525342 0
502 1 13 3.83095416464651 60.338927304592715 0
503 1 18 10.462565250589108 60.30534448743932 0
504 1 10 17.394191171706865 60.32334572141662 0
505 1 11 24.268296969924783 60.14319198519806 0
506 1 12 31.4913105782969 60.24601142633898 0
507 1 13 38.370419328598175 60.09902234316512 0
508 1 13 45.33969564605633 60.31297559950625 0
509 1 13 52.06631127607034 60.15825573723321 0
510 1 13 58.919133368179104 60.15153385052912 0
511 1 13 65.8524170453649 60.263199866422624 0
512 1 13 72.78493426875839 60.10668827058869 0
513 1 12 79.70458070700556 60.04664819057215 0
514 1 11 86.8702281094282 60.16454370957733 0
515 1 10 93.62890887047332 60.211525603358886 0
516 1 18 100.58995572728307 60.246271693843504 0
517 1 13 107.49832292866185 60.227570881866136 0
518 1 18 114.47679525179271 60.14069635059372 0
519 1 15 121.58775316174967 60.03743275949401 0
520 1 19 128.25987480136234 60.258235145889195 0
521 1 16 135.30631273217503 60.38516008046406 0
522 1 16 142.33592955860288 60.046478806076315 0
523 1 19 149.32140121749458 60.02895399612963 0
524 1 15 156.11924810490973 60.00383114622348 0
525 1 18 162.90051560667547 60.33829162138386 0
526 1 13 0.09295833715156254 62.05916670316727 0
527 1 12 7.26024405188319 62.242554389400524 0
528 1 11 14.170913633872434 62.106156792697 0
529 1 10 20.804015069998904 62.26394519519681 0
530 1 18 27.914723309457592 62.01822866075957 0
531 1 13 34.84215259425219 62.355386377171364 0
532 1 13 41.73612620474539 62.04799377997439 0
533 1 13 48.856543717230686 62.0645098178288 0
534 1 13 55.760041728340916 62.32191158748956 0
535 1 13 62.43748930334424 62.27330148046151 0
536 1 13 69.66545460948174 62.366404294892135 0
537 1 13 76.45297817823634 62.36772555264671 0
538 1 18 83.313871468278 62.37407093061017 0
539 1 10 90.21269426480634 62.164582384908584 0
540 1 11 97.0495522813458 62.33828379978657 0
541 1 12 104.15124655243989 62.292644868853095 0
542 1 13 110.89454969443725 62.19046449857464 0
543 1 14 118.07773353449916 62.1045386560636 0
544 1 15 124.80785021395789 62.05745023514796 0
545 1 19 131.93771697897338 62.19767080527722 0
546 1 19 138.6807782235017 62.11286595285022 0
547 1 19 145.6713425560345 62.14983171882529 0
548 1 15 152.56773564631007 62.265797030092095 0