
14309 atoms
14896 bonds
16659 angles
29 atom types
7 bond types
22 angle types

-5.680607966083864 171.52447279080386 xlo xhi
-2.0 148.0 ylo yhi
-4 4 zlo zhi


Masses

1 0.00021665820428196667
2 0.0004136202081746636
3 0.0005121012101210121
4 0.000590886011678091
5 0.0004924050097317424
6 0.0005514936108995516
7 0.00035453160700685455
8 0.0004727088093424727
9 0.00043331640856393333
10 0.0006302784124566303
11 0.0006696708132351698
12 0.0008666328171278668
13 0.0007878480155707879
14 0.0008272404163493272
15 0.0007090632140137091
16 0.0006696708132351697
17 0.0007484556147922484
18 0.0008666328171278667
19 0.0005317974105102819
20 0.00045301260895320305
21 0.0003742278073961243
22 0.00019696200389269697
23 0.00043331640856393333
24 0.00039392400778539394
25 0.0004727088093424727
26 0.0005514936108995516
27 0.0006302784124566303
28 0.0005121012101210121
29 0.00031513920622831517

Pair Coeffs

1 0.40509979849834776 0.44544935907016964 0.5
2 0.40509979849834776 0.44544935907016964 0.5
3 0.40509979849834776 0.44544935907016964 0.5
4 0.40509979849834776 0.44544935907016964 0.5
5 0.40509979849834776 0.44544935907016964 0.5
6 0.40509979849834776 0.44544935907016964 0.5
7 0.40509979849834776 0.44544935907016964 0.5
8 0.40509979849834776 0.44544935907016964 0.5
9 0.40509979849834776 0.44544935907016964 0.5
10 0.40509979849834776 0.44544935907016964 0.5
11 0.40509979849834776 0.44544935907016964 0.5
12 0.40509979849834776 0.44544935907016964 0.5
13 0.40509979849834776 0.44544935907016964 0.5
14 0.40509979849834776 0.44544935907016964 0.5
15 0.40509979849834776 0.44544935907016964 0.5
16 0.40509979849834776 0.44544935907016964 0.5
17 0.40509979849834776 0.44544935907016964 0.5
18 0.40509979849834776 0.44544935907016964 0.5
19 0.40509979849834776 0.44544935907016964 0.5
20 0.40509979849834776 0.44544935907016964 0.5
21 0.40509979849834776 0.44544935907016964 0.5
22 0.40509979849834776 0.44544935907016964 0.5
23 0.40509979849834776 0.44544935907016964 0.5
24 0.40509979849834776 0.44544935907016964 0.5
25 0.40509979849834776 0.44544935907016964 0.5
26 0.40509979849834776 0.44544935907016964 0.5
27 0.40509979849834776 0.44544935907016964 0.5
28 0.40509979849834776 0.44544935907016964 0.5
29 0.40509979849834776 0.44544935907016964 0.5

Bond Coeffs

1 86.66328171278667 0.5
2 78.7848015570788 0.5
3 94.54176186849455 0.5
4 110.2987221799103 0.5
5 126.05568249132605 0.5
6 102.42024202420241 0.5
7 63.027841245663026 0.5

Angle Coeffs

1 5.424055763732379 180
2 4.075173376207648 180
3 7.041899594086815 180
4 11.182275744313785 180
5 16.691910148946523 180
6 8.953155907528199 180
7 2.0864887686183153 180
8 4.653844499126879 120
9 8.641758714746965 120
10 13.392573523014411 120
11 7.883339316284702 120
12 11.182275744313785 120
13 7.304838780702649 120
14 2.759905778595656 120
15 7.041899594086815 120
16 5.424055763732379 120
17 6.127995004726741 120
18 9.944326982496415 120
19 8.953155907528199 120
20 3.013691319621246 120
21 5.162682986867165 120
22 4.075173376207649 120

Atoms

1 1 1 -3.069834761833407 0.23228043657807518 0
2 1 2 3.512390445312077 0.08787854125682447 0
3 1 3 10.631874952696073 0.19963641550272826 0
4 1 4 17.650253804310402 0.3527715498583907 0
5 1 5 24.28213250821082 0.2722020605643678 0
6 1 6 31.325821022118312 0.2381351183634405 0
7 1 5 38.1760761968739 0.21462976107077286 0
8 1 7 45.120939799833245 0.3054533182610788 0
9 1 8 52.14831980317065 0.006509854061728593 0
10 1 8 59.209545668250705 0.23893442094734627 0
11 1 7 65.98121739332784 0.09021964822412137 0
12 1 5 73.00321634691974 0.11920865792020585 0
13 1 6 79.80514106971087 0.0972477385628082 0
14 1 5 86.84888474969777 0.29670073513474804 0
15 1 4 93.5332398593994 0.25198319107852224 0
16 1 3 100.81298662073971 0.006374153364765567 0
17 1 2 107.74734020691315 0.1575342252397298 0
18 1 9 114.4922992050949 0.06496144866562244 0
19 1 9 121.26554952883681 0.11702808303025206 0
20 1 9 128.4554191230677 0.11715447480585835 0
21 1 9 135.49183387424446 0.014617822028015759 0
22 1 9 142.3394333958234 0.14448701486768867 0
23 1 9 149.16060697790994 0.05215750515976945 0
24 1 9 156.16350235853704 0.17095100154920306 0
25 1 9 162.91979788938897 0.08239300643218535 0
26 1 10 0.10916797312046166 2.330787931596367 0
27 1 11 7.225386993634301 2.040259077364749 0
28 1 12 13.933407695078627 2.1543423443484624 0
29 1 13 21.009988796688113 2.1254268984685445 0
30 1 13 27.75251827970109 2.109253705508423 0
31 1 14 34.806391224868605 2.039535662110275 0
32 1 4 41.65100802213693 2.3675205478707118 0
33 1 10 48.6032758609054 2.269402847180489 0
34 1 15 55.715102358130856 2.382009672116016 0
35 1 10 62.38518463005268 2.3833970249842196 0
36 1 4 69.59459989115017 2.3344461309422444 0
37 1 14 76.49842259628822 2.0585092417197095 0
38 1 13 83.44942939286989 2.312170295356411 0
39 1 13 90.40514674433508 2.3332930092958666 0
40 1 12 97.16032987072043 2.015823883819844 0
41 1 11 104.26132084433338 2.0297437947230326 0
42 1 10 110.94199450319528 2.2497913753712577 0
43 1 16 118.01554071085191 2.123302167922574 0
44 1 16 125.01854293760094 2.3491434004818665 0
45 1 16 131.9835825791615 2.352457713220812 0
46 1 16 138.83415898544595 2.227731608762578 0
47 1 16 145.6836482611152 2.068386948723016 0
48 1 16 152.56042116097964 2.264246127367918 0
49 1 16 159.36725797459223 2.2883287509364743 0
50 1 10 166.36973064382147 2.185117410168723 0
51 1 11 0.10109780394511324 6.035903931486985 0
52 1 10 7.294057195767959 6.253418407275929 0
53 1 13 13.93773692208276 6.357914406058765 0
54 1 12 20.914046848336294 6.340033326915164 0
55 1 17 27.75529464550057 6.241511343061891 0
56 1 14 34.960786484631704 6.222986907142529 0
57 1 15 41.68122290080143 6.195226265428585 0
58 1 6 48.59204552485951 6.336524612592262 0
59 1 10 55.5450965929858 6.24124993782668 0
60 1 6 62.62458365788568 6.250744608119576 0
61 1 15 69.48060896818764 6.038891582131443 0
62 1 14 76.5435931864563 6.298461790779581 0
63 1 17 83.48465899705984 6.036277947756409 0
64 1 12 90.17573999586494 6.054353063585589 0
65 1 13 97.25583023521875 6.054323920598264 0
66 1 10 103.964824359354 6.240322148893533 0
67 1 11 110.86680179617653 6.20054987571087 0
68 1 13 118.07608569502784 6.264308873907681 0
69 1 13 124.91870406466941 6.0372362311271095 0
70 1 13 131.87498234239595 6.194041591671221 0
71 1 13 138.9529164025606 6.186471034195112 0
72 1 13 145.8181819329197 6.241778340282261 0
73 1 13 152.59688897440427 6.192081340961094 0
74 1 13 159.4603249017288 6.315210419722831 0
75 1 11 166.44287196997342 6.114180863747512 0
76 1 3 -3.4228404263898655 8.149881476917399 0
77 1 10 3.830481545353338 8.295235791725117 0
78 1 11 10.751615874747081 8.342683966894477 0
79 1 12 17.61446029492073 8.20417188137782 0
80 1 13 24.484054909361163 8.08461668646611 0
81 1 13 31.267439800114595 8.333883354142776 0
82 1 14 38.3370338650985 8.343610146444163 0
83 1 4 45.28396686040352 8.195857738241525 0
84 1 6 52.14232892740251 8.325129046673084 0
85 1 6 58.97759402262596 8.102978818943063 0
86 1 4 66.20194463216679 8.181421835043174 0
87 1 14 73.08895876768169 8.088158207890695 0
88 1 13 79.82300384956912 8.134494807152038 0
89 1 13 86.85936212981028 8.001792544613442 0
90 1 12 93.88523101881884 8.289249639056106 0
91 1 11 100.66098149789647 8.218593733758118 0
92 1 10 107.53245041007034 8.22975355565626 0
93 1 13 114.34092594290404 8.079468890549318 0
94 1 18 121.26101331502086 8.1709957077791 0
95 1 18 128.30897689742125 8.301420413165165 0
96 1 18 135.35519347256076 8.182892887599182 0
97 1 18 142.23122373034172 8.358450838400485 0
98 1 18 149.0077764027419 8.125142376717344 0
99 1 18 156.0479191102171 8.195759417234429 0
100 1 13 163.02855201198375 8.084824957543612 0
101 1 6 -3.2756800741870964 12.314080530055717 0
102 1 11 3.8196515492889143 12.341138681077354 0
103 1 10 10.432589713975354 12.299847895257114 0
104 1 13 17.32633705874731 12.207694662573427 0
105 1 12 24.488565604611694 12.374805275468027 0
106 1 17 31.2193666994061 12.13909197265597 0
107 1 14 38.21079740524537 12.366846171966442 0
108 1 15 45.08648347061205 12.144142579245848 0
109 1 4 52.0179349203447 12.195987913128507 0
110 1 4 59.2532294511439 12.395192449242137 0
111 1 15 66.17266661545924 12.37110078272858 0
112 1 14 72.80525739893801 12.185032026844711 0
113 1 17 79.69137281407805 12.346211343936957 0
114 1 12 86.9205339583427 12.065473501195742 0
115 1 13 93.75865738775948 12.123236788136253 0
116 1 10 100.8524311676248 12.127885301266227 0
117 1 11 107.67259330655004 12.126382925553129 0
118 1 12 114.37200324910216 12.193441240857133 0
119 1 18 121.32293432683142 12.294163333277593 0
120 1 18 128.53753146965687 12.212599409779825 0
121 1 18 135.32304023489843 12.179797673062438 0
122 1 18 142.3650319273379 12.249075609729319 0
123 1 18 149.17198284427053 12.364601854548281 0
124 1 18 155.93524568392488 12.15446155129776 0
125 1 12 163.15031997808566 12.016916146965935 0
126 1 13 0.324381285347622 14.152518042355762 0
127 1 10 7.06948212516216 14.237408673355732 0
128 1 11 13.985565070323009 14.059518093129048 0
129 1 12 20.968379893615534 14.260635398796698 0
130 1 13 28.088404936842707 14.045193957015993 0
131 1 13 34.96563647476766 14.135175341722498 0
132 1 14 41.77734730946552 14.398848125651334 0
133 1 15 48.56766764536786 14.395720497377452 0
134 1 15 55.45490569344948 14.138964609831552 0
135 1 15 62.609997591293975 14.341103941532191 0
136 1 14 69.4570640368169 14.28387416631147 0
137 1 13 76.2465507012942 14.089611619120621 0
138 1 13 83.22580646164626 14.272506598722815 0
139 1 12 90.12685746829948 14.268627281804292 0
140 1 11 97.2884433681474 14.084292952267369 0
141 1 10 104.25613558953783 14.37885200182238 0
142 1 13 110.91970067934946 14.136636458500664 0
143 1 12 117.96148126057234 14.003122572849792 0
144 1 13 124.91494652582159 14.026267937035174 0
145 1 13 131.921668610065 14.014913748938456 0
146 1 13 138.9031952421678 14.142848795756379 0
147 1 13 145.77053432663763 14.056371584217484 0
148 1 13 152.5044095289555 14.192917053603143 0
149 1 12 159.5775889620115 14.197327367480165 0
150 1 13 166.62463138645887 14.0746293816742 0
151 1 12 0.13850273617274214 18.030867665583198 0
152 1 11 7.211632575011062 18.201389813184726 0
153 1 10 14.25200928962445 18.36369840927494 0
154 1 13 20.95443790908051 18.179911246581444 0
155 1 12 27.95526250063845 18.161366407227167 0
156 1 17 35.02919221345803 18.241631197796043 0
157 1 14 41.66173572434775 18.06252630207122 0
158 1 14 48.868935767679716 18.05007604247978 0
159 1 14 55.76859680668537 18.326772806647234 0
160 1 14 62.536785722268085 18.07671165162382 0
161 1 14 69.57949780292695 18.3973156397866 0
162 1 17 76.47536290024505 18.24054791393845 0
163 1 12 83.2166199354074 18.07672751349189 0
164 1 13 90.14430046281886 18.00478961116738 0
165 1 10 97.18626737137863 18.22277940444985 0
166 1 11 104.07109964278168 18.17921245084059 0
167 1 12 111.13350490808394 18.12282914227068 0
168 1 13 117.93965157574985 18.247362341999953 0
169 1 17 124.7211734579727 18.13510535036634 0
170 1 17 131.71157343162352 18.169793932621655 0
171 1 17 138.69666044213648 18.080487237814395 0
172 1 17 145.68760757251565 18.10169719046444 0
173 1 17 152.48159308467694 18.035111268205796 0
174 1 13 159.37636344106477 18.052452277113552 0
175 1 12 166.4410800240547 18.03341895421117 0
176 1 4 -3.4272679506375616 20.3489738791125 0
177 1 13 3.467045963689219 20.18740816780433 0
178 1 10 10.579943629100953 20.066403951107972 0
179 1 11 17.57210152590722 20.027706738357487 0
180 1 12 24.407018767851934 20.225440958706947 0
181 1 13 31.239800737501046 20.30281738058277 0
182 1 13 38.38133094509999 20.165135135254076 0
183 1 14 45.40618235107779 20.269489262120214 0
184 1 14 52.314869879240646 20.291182073401778 0
185 1 14 58.98275480531017 20.127839214231308 0
186 1 14 66.01925204396571 20.06473246875056 0
187 1 13 72.91249496417771 20.38114649416904 0
188 1 13 79.96474976094345 20.112317670672017 0
189 1 12 86.88864447568396 20.1252621459788 0
190 1 11 93.70994142838725 20.312882354503703 0
191 1 10 100.54509984650973 20.165837808858317 0
192 1 13 107.52300913816066 20.398767300356422 0
193 1 12 114.52948150439886 20.15304256347358 0
194 1 17 121.5790723573165 20.129058874505702 0
195 1 13 128.5402974627132 20.335639178916804 0
196 1 13 135.48236990647092 20.036795700832418 0
197 1 13 142.3470864265528 20.036131692239888 0
198 1 13 149.1031068491915 20.19242828194407 0
199 1 17 156.13155674076276 20.31878307639276 0
200 1 12 162.9576824145936 20.07816304653707 0
201 1 6 -3.253435160249263 24.375179723270094 0
202 1 12 3.6709339691601675 24.071442322151675 0
203 1 11 10.461231392636568 24.302975595393946 0
204 1 10 17.333090628661175 24.36592390526085 0
205 1 13 24.600691320923787 24.081842938658156 0
206 1 12 31.304767600309894 24.179408065776745 0
207 1 17 38.14048674082858 24.09204977082786 0
208 1 13 45.28634978414824 24.089833919745217 0
209 1 13 52.052018220478146 24.091034308782653 0
210 1 13 58.99484968694063 24.128600460880044 0
211 1 13 66.15057847225667 24.307428365663952 0
212 1 17 73.08851278376349 24.09734839219148 0
213 1 12 79.88071381950635 24.0804454680483 0
214 1 13 86.62609381909697 24.207241002416822 0
215 1 10 93.83345744167794 24.034677500745424 0
216 1 11 100.49207563395707 24.185772911066437 0
217 1 12 107.48057704796187 24.316287916879407 0
218 1 13 114.5616454402909 24.25035273171805 0
219 1 13 121.59806496177077 24.34245228699067 0
220 1 14 128.40068526819087 24.193994772805677 0
221 1 14 135.42769906562984 24.230592394385695 0
222 1 14 142.4017501806388 24.01899899456496 0
223 1 14 149.32660443805017 24.041055716771016 0
224 1 13 156.24926309652218 24.317722733322785 0
225 1 13 162.83326019371808 24.065147617759525 0
226 1 12 0.057451704279253106 26.046514542894755 0
227 1 13 6.976512827973269 26.00137076247671 0
228 1 10 13.88172391098319 26.076996445307234 0
229 1 11 21.08169428969308 26.249966693505456 0
230 1 12 27.792743558909795 26.015897763892347 0
231 1 13 34.93257977876061 26.325120402172914 0
232 1 17 41.710531142734084 26.316963251487525 0
233 1 17 48.70857284196017 26.02140410363123 0
234 1 17 55.760785714742795 26.066457835041895 0
235 1 17 62.697373867533045 26.07864499342545 0
236 1 17 69.30525026315155 26.392177296277893 0
237 1 13 76.53343411004425 26.265810636246336 0
238 1 12 83.44636229279095 26.38998690728236 0
239 1 11 90.40167389702462 26.03583223146614 0
240 1 10 97.04339343836531 26.226780371343327 0
241 1 13 103.96400511058931 26.34870764041965 0
242 1 12 111.23998594602185 26.187719222900668 0
243 1 17 117.92265473079487 26.121667447167727 0
244 1 14 124.95793779196124 26.163008696695165 0
245 1 14 131.79081623195088 26.01630431637033 0
246 1 14 138.6732844873743 26.243189399353827 0
247 1 14 145.79250764829433 26.172066793468158 0
248 1 14 152.44579443633606 26.335978851308838 0
249 1 17 159.446097041211 26.13386876562035 0
250 1 12 166.50850093964732 26.359633775924998 0
251 1 13 0.081152069547898 30.359488291190424 0
252 1 12 7.2164368612174075 30.10587172248816 0
253 1 11 14.099081013278576 30.005273307885062 0
254 1 10 20.787822559364617 30.162157128867815 0
255 1 13 27.803148670031792 30.162976831125658 0
256 1 12 34.858230031831184 30.04715697110413 0
257 1 13 41.62151773396112 30.171152282403607 0
258 1 13 48.657322976482725 30.050192747862432 0
259 1 13 55.584050939471744 30.161320845428296 0
260 1 13 62.545672344850495 30.241275839784844 0
261 1 13 69.6347347863643 30.35021900772682 0
262 1 12 76.603132103723 30.21616922085654 0
263 1 13 83.16612569086028 30.16517967439033 0
264 1 10 90.24681603070918 30.16950579607513 0
265 1 11 97.30431090295953 30.08100591609514 0
266 1 12 103.94809217576157 30.397998135368322 0
267 1 13 111.03208561625506 30.13118111337672 0
268 1 13 118.08080092075795 30.334943731870716 0
269 1 14 124.71223530700864 30.18151407629154 0
270 1 15 131.79460347819392 30.092362292200754 0
271 1 15 138.63977466013534 30.307459738436513 0
272 1 15 145.77544396905753 30.240276952025773 0
273 1 14 152.68364810969203 30.13812724254672 0
274 1 13 159.56403086353285 30.154220599654103 0
275 1 13 166.32216853236952 30.221327757552693 0
276 1 5 -3.1907556740152767 32.00752389585554 0
277 1 12 3.7864893510146893 32.267105671932924 0
278 1 13 10.705255354803068 32.02992709204452 0
279 1 10 17.53299292294966 32.1778842625287 0
280 1 11 24.385254472650598 32.19301196891262 0
281 1 12 31.241710416785438 32.203872252837265 0
282 1 18 38.30544338130207 32.21216663780032 0
283 1 18 45.33655683761802 32.039865180190674 0
284 1 18 52.24328860180383 32.36056453328074 0
285 1 18 59.135884566261545 32.21942641492379 0
286 1 18 65.88191496602067 32.25010667684432 0
287 1 18 72.88796662577377 32.307451118802696 0
288 1 12 79.6976624623753 32.20690906880536 0
289 1 11 86.73092682230654 32.28995540838487 0
290 1 10 93.65474027817693 32.04618614221864 0
291 1 13 100.50934487803256 32.380140526266096 0
292 1 12 107.55886203728437 32.015170394175826 0
293 1 17 114.32720476052992 32.152775332421804 0
294 1 14 121.41860785048227 32.314629219570115 0
295 1 15 128.53262523192612 32.075843694468276 0
296 1 4 135.18311335290446 32.11698598764089 0
297 1 4 142.06481538064156 32.32076449883767 0
298 1 15 149.22437950271848 32.15466500458015 0
299 1 14 156.1696046686794 32.260441240701496 0
300 1 17 163.0545694214687 32.0733085922656 0
301 1 3 -3.1865746239143697 36.35687062466705 0
302 1 13 3.614362330150464 36.046077004716835 0
303 1 12 10.691756010637668 36.37409019593393 0
304 1 11 17.444059960869993 36.329069471649404 0
305 1 10 24.421745323779735 36.11417003084003 0
306 1 13 31.27370061958106 36.056272119762724 0
307 1 18 38.503263955206755 36.35059562563814 0
308 1 18 45.405574024389374 36.353453611023966 0
309 1 18 52.15854043162091 36.02820611586182 0
310 1 18 59.2285238017946 36.140202852892706 0
311 1 18 66.14025548076351 36.14327820235082 0
312 1 18 72.89041016447035 36.091959216606746 0
313 1 13 79.88283476970346 36.009064035964215 0
314 1 10 86.97321421518768 36.07131404151569 0
315 1 11 93.90777588658916 36.3472924485448 0
316 1 12 100.73036852575127 36.23624129224444 0
317 1 13 107.69922683436663 36.21655278863726 0
318 1 13 114.41730470513998 36.115368298545086 0
319 1 14 121.42952902794214 36.292446592133544 0
320 1 4 128.39214282416344 36.35772587925177 0
321 1 6 135.25857904989354 36.10467377283923 0
322 1 6 142.10402930526166 36.3912884639295 0
323 1 4 149.28654696457943 36.098494663363624 0
324 1 14 156.1030675130586 36.13589304752728 0
325 1 13 162.85208564692425 36.3703837226053 0
326 1 17 0.06392485340223208 38.29023729466319 0
327 1 12 6.975041085604566 38.21490321965041 0
328 1 13 13.939870171540257 38.37402149538412 0
329 1 10 21.17612883010953 38.01193005526577 0
330 1 11 27.720439386285054 38.103966133274724 0
331 1 13 34.837179956875005 38.140038740546245 0
332 1 13 41.6387624868231 38.33314994044047 0
333 1 13 48.76880894825423 38.306558148247596 0
334 1 13 55.56440964000342 38.155266329501565 0
335 1 13 62.66708761175385 38.236026548334834 0
336 1 13 69.4943505471066 38.354456957369344 0
337 1 13 76.5767861806864 38.379048875568536 0
338 1 11 83.17561884630257 38.325730973408994 0
339 1 10 90.25494715566035 38.23466562145962 0
340 1 13 97.34259248079043 38.112054214165866 0
341 1 12 104.1707304668693 38.029325934381426 0
342 1 17 111.16117075709268 38.3189540814583 0
343 1 14 117.86468009684488 38.261967543223264 0
344 1 15 124.95038667984159 38.26793647362849 0
345 1 6 131.96324212751543 38.05797250372977 0
346 1 10 138.88290287101668 38.11462246143786 0
347 1 6 145.5079382894975 38.08685060295693 0
348 1 15 152.55119775917416 38.363783548773746 0
349 1 14 159.3668194334949 38.040456087955775 0
350 1 17 166.60365728378414 38.00473016614552 0
351 1 13 0.07209012674964713 42.116831685831436 0
352 1 13 7.001167252017096 42.390834068840995 0
353 1 12 14.050699931607621 42.104220701497724 0
354 1 11 20.85366128900119 42.00800463498325 0
355 1 10 28.07430995800474 42.37784622310056 0
356 1 16 34.742289783194984 42.24199122234263 0
357 1 16 41.923660267554894 42.040713299417675 0
358 1 16 48.60140708343689 42.38436009457271 0
359 1 16 55.70213479812946 42.147745004060816 0
360 1 16 62.44340727424458 42.34915962431687 0
361 1 16 69.3640655066649 42.25739105447066 0
362 1 16 76.3990054009476 42.356931963967355 0
363 1 10 83.40733665984618 42.041452691230894 0
364 1 11 90.33767740115304 42.12999565791908 0
365 1 12 97.20732306393425 42.28157109090296 0
366 1 13 104.27112658827319 42.23950970856151 0
367 1 13 111.17987313617768 42.07728366551061 0
368 1 14 117.86327328105912 42.27569775141106 0
369 1 4 124.74514579547525 42.173728332055404 0
370 1 10 131.9130183464137 42.38490023989263 0
371 1 15 138.57292085949743 42.16993080511537 0
372 1 10 145.84792053084155 42.29692804838945 0
373 1 4 152.67128992285984 42.288309425780106 0
374 1 14 159.40389323800724 42.26662424667724 0
375 1 13 166.31147161167084 42.00647901535987 0
376 1 6 -3.1437431513981093 44.243843286361155 0
377 1 17 3.7585589963862236 44.260027351789326 0
378 1 12 10.640896026577822 44.289161636666925 0
379 1 13 17.46716669980578 44.23138098317744 0
380 1 10 24.55371906268981 44.058720922074244 0
381 1 10 31.511579375025736 44.35225497399788 0
382 1 10 38.272252488329244 44.144275984078895 0
383 1 10 45.42020085010652 44.20707334442157 0
384 1 10 52.19905254816944 44.01811540418272 0
385 1 10 58.94792697407955 44.31320641619795 0
386 1 10 66.13274245684877 44.380829858877064 0
387 1 10 73.11199281438209 44.279367890449386 0
388 1 10 79.68405791008648 44.12707248778645 0
389 1 10 86.69716430627646 44.30514707354969 0
390 1 13 93.80194215817266 44.154928500648 0
391 1 12 100.5848492579633 44.01272433878731 0
392 1 17 107.38989375460639 44.158474564160976 0
393 1 14 114.6068944705128 44.27486071176051 0
394 1 15 121.61402652032672 44.36260530740568 0
395 1 6 128.32326700898923 44.190360864313874 0
396 1 15 135.3328874299287 44.185905717455825 0
397 1 15 142.3725556187821 44.06737761954074 0
398 1 6 149.2840534836006 44.20639200590652 0
399 1 15 155.94925428332058 44.03041707296998 0
400 1 14 162.9872610297158 44.11560667923199 0
401 1 6 -3.233388070799253 48.19195454558935 0
402 1 17 3.714247023182821 48.12471881250438 0
403 1 12 10.503047139089873 48.15218550986907 0
404 1 13 17.605258648673413 48.12217890146462 0
405 1 10 24.313642382154406 48.098713891144946 0
406 1 10 31.25262824217033 48.03699889986412 0
407 1 10 38.13542521550373 48.295806782215664 0
408 1 10 45.412938695755145 48.1703576094079 0
409 1 10 52.132572309834764 48.30570811371229 0
410 1 10 59.14352419347719 48.060563456701686 0
411 1 10 66.20751823053725 48.31498378097798 0
412 1 10 73.01271776868035 48.28966811116455 0
413 1 10 79.89505973755554 48.21224714417179 0
414 1 10 86.980117503497 48.2390490380912 0
415 1 13 93.75817741738254 48.385450756677486 0
416 1 12 100.57408727131278 48.091832652891824 0
417 1 17 107.57820565987723 48.04402779013447 0
418 1 14 114.45858131639125 48.12395556545122 0
419 1 15 121.32132905152379 48.3720454208296 0
420 1 6 128.40696234627276 48.01514867676909 0
421 1 15 135.39911293637047 48.39632719315859 0
422 1 15 142.07499932697436 48.10157807050037 0
423 1 6 149.04562188762185 48.071306004880874 0
424 1 15 156.26339125470506 48.190140835698585 0
425 1 14 163.11683839962677 48.11996815589952 0
426 1 13 0.348379055200002 50.07521729078697 0
427 1 13 7.144687205251985 50.36779586737517 0
428 1 12 14.114137264638861 50.0941399034015 0
429 1 11 21.12292133482077 50.102544903602194 0
430 1 10 27.927885791033965 50.09313497138124 0
431 1 16 35.030696524548254 50.2610106476239 0
432 1 16 41.813285496140296 50.18808123810972 0
433 1 16 48.61760748771605 50.28631959733646 0
434 1 16 55.49806263805921 50.13023789576313 0
435 1 16 62.74774217306489 50.27546541439488 0
436 1 16 69.55571768593686 50.325788922513425 0
437 1 16 76.25276399719152 50.06564510200654 0
438 1 10 83.3895064731016 50.313495660638665 0
439 1 11 90.09699253814888 50.029774215310084 0
440 1 12 97.11804720277911 50.02616364777915 0
441 1 13 104.29160301671477 50.2859097981511 0
442 1 13 110.89528782767853 50.35682948132712 0
443 1 14 117.79688550866865 50.286803184098574 0
444 1 4 125.10724339272342 50.062389674544626 0
445 1 10 131.9900103965338 50.224233545792586 0
446 1 15 138.8691842006932 50.12044861972618 0
447 1 10 145.63466572919967 50.347105605893844 0
448 1 4 152.69660197307996 50.16354734795921 0
449 1 14 159.46077972395486 50.241596763633126 0
450 1 13 166.45731752753815 50.292367152644374 0
451 1 17 0.04638807707162567 54.17195185435336 0
452 1 12 7.182436301936815 54.02257863042836 0
453 1 13 13.997626535425471 54.18699248291196 0
454 1 10 20.975231040657526 54.109393455268915 0
455 1 11 27.884945167701787 54.36695573907298 0
456 1 13 34.7689275354851 54.23340467604692 0
457 1 13 41.605317881977385 54.09388903026291 0
458 1 13 48.66123220307204 54.05278501265224 0
459 1 13 55.82054128412412 54.35466214052916 0
460 1 13 62.604573248596296 54.37563911735116 0
461 1 13 69.66878579898709 54.36329436416181 0
462 1 13 76.46030688540465 54.17139501152125 0
463 1 11 83.40443932411232 54.24594258671751 0
464 1 10 90.17840623156856 54.24761757792831 0
465 1 13 97.19618437416881 54.17826245793047 0
466 1 12 104.00354598128887 54.10532338643941 0
467 1 17 111.21124496559725 54.105523641804815 0
468 1 14 117.80473204502636 54.09020976974949 0
469 1 15 124.80679717055632 54.37998402397939 0
470 1 6 131.87632725783664 54.38231217054219 0
471 1 10 138.7537669389064 54.330511052069156 0
472 1 6 145.52029651258115 54.28967720541515 0
473 1 15 152.51157105949574 54.11626999303665 0
474 1 14 159.51616789596002 54.37315665267067 0
475 1 17 166.48837573983724 54.187986626508035 0
476 1 3 -3.391288713134239 56.034730786491124 0
477 1 13 3.630108906516821 56.0258387838303 0
478 1 12 10.589388861206483 56.177233365263604 0
479 1 11 17.530187540449255 56.34758171144335 0
480 1 10 24.338717347780264 56.3903726717118 0
481 1 13 31.32383926300073 56.11497631295547 0
482 1 18 38.14063568917617 56.323956213180125 0
483 1 18 45.33010568406904 56.34256603230917 0
484 1 18 52.16144640342664 56.2784497764065 0
485 1 18 59.086475717916365 56.14876562901637 0
486 1 18 66.10418356829518 56.05732703315659 0
487 1 18 72.88792290052355 56.329313388866055 0
488 1 13 79.93295153534673 56.21312290322705 0
489 1 10 86.76183778105403 56.19439764408538 0
490 1 11 93.58989592487197 56.06203438858593 0
491 1 12 100.8267822239826 56.35186403447362 0
492 1 13 107.73916031627529 56.392666950297524 0
493 1 13 114.50863206840724 56.1118352019863 0
494 1 14 121.29400659735269 56.00436738448587 0
495 1 4 128.39028125983458 56.137646423079 0
496 1 6 135.1407252346066 56.25867829490603 0
497 1 6 142.40918123601682 56.24248657232116 0
498 1 4 149.30575871394205 56.15036967562445 0
499 1 14 156.1567309546659 56.17269966862739 0
500 1 13 163.2095484003214 56.01359025164601 0
501 1 5 -3.3541389020477013 60.26467458761257 0
502 1 12 3.5343008868212475 60.16890891946997 0
503 1 13 10.43079768567717 60.18105960121371 0
504 1 10 17.630177119465813 60.33618830562569 0
505 1 11 24.465581996992178 60.37188555641509 0
506 1 12 31.25108219339796 60.04813748207322 0
507 1 18 38.27555912418661 60.14967006792577 0
508 1 18 45.127879202022974 60.076644957493485 0
509 1 18 52.153748946644065 60.27942609578934 0
510 1 18 59.14269989242946 60.14023255234168 0
511 1 18 66.10860823880599 60.32500238525948 0
512 1 18 72.857143946726 60.06796724062557 0
513 1 12 79.84702250356224 60.15769165977512 0
514 1 11 86.86587663513973 60.02730682840634 0
515 1 10 93.61100099596432 60.30934620781854 0
516 1 13 100.68211592786328 60.24227735821669 0
517 1 12 107.59220044355543 60.01939320708789 0
518 1 17 114.4182666074992 60.36100162507773 0
519 1 14 121.33809456809254 60.37965369030626 0
520 1 15 128.34710299771814 60.298956790493506 0
521 1 4 135.2235157035268 60.398987620904876 0
522 1 4 142.24108941752777 60.04984119103682 0
523 1 15 149.35278733897746 60.27939436445009 0
524 1 14 155.95796437041813 60.29816624432891 0
525 1 17 163.21068448880493 60.06674663911325 0
526 1 13 0.06395545892921164 62.07589216437164 0
527 1 12 7.28655189518413 62.04487226746864 0
528 1 11 13.91971517090565 62.02658554358153 0
529 1 10 21.133960571667487 62.081252813511554 0
530 1 13 27.7424936766014 62.173850870338505 0
531 1 12 34.727357042677056 62.25074641682879 0
532 1 13 41.5896198483626 62.23225762516644 0
533 1 13 48.681439894743455 62.0153642284233 0
534 1 13 55.76894677703147 62.08263433191998 0
535 1 13 62.50025442470482 62.06794316451133 0
536 1 13 69.67914106639473 62.28763016945861 0
537 1 12 76.42063407933716 62.06263714369313 0
538 1 13 83.32010409150686 62.226695478827345 0
539 1 10 90.39864177598456 62.03176793737207 0
540 1 11 97.23149736084986 62.1307770584559 0
541 1 12 104.00443388313275 62.366277256844945 0
542 1 13 111.01656219366261 62.3251561087083 0
543 1 13 117.82576875271336 62.362995954062235 0
544 1 14 124.74043964220509 62.32569025240225 0
545 1 15 131.95781375737343 62.127617264896564 0
546 1 15 138.72513705241215 62.040338697399655 0
547 1 15 145.67690183429562 62.147060949796966 0
548 1 14 152.68515893704543 62.38955440468669 0
549 1 13 159.53164191737184 62.06876171822648 0
550 1 13 166.421180408427 62.22410548427303 0
551 1 12 0.33956176772300023 66.14139286285577 0
552 1 13 7.267895036261706 66.09355339118719 0
553 1 10 14.243718649290551 66.14826102658176 0