
14309 atoms
14896 bonds
16659 angles
17 atom types
5 bond types
12 angle types

-5.680607966083864 171.52447279080386 xlo xhi
-2.0 148.0 ylo yhi
-4 4 zlo zhi


Masses

1 0.00022035809757184227
2 0.000298131543773669
3 0.0006740365337491646
4 0.0005184896413455112
5 0.00044071619514368454
6 0.0008036589440855424
7 0.0008814323902873691
8 0.0007777344620182669
9 0.0009851303185564714
10 0.0006221875696146136
11 0.0005833008465137002
12 0.0005703386054800623
13 0.00044071619514368454
14 0.0001555468924036534
15 0.0007258854978837157
16 0.0006221875696146136
17 0.0005184896413455112

Pair Coeffs

1 0.40509979849834776 0.44544935907016964 0.5
2 0.40509979849834776 0.44544935907016964 0.5
3 0.40509979849834776 0.44544935907016964 0.5
4 0.40509979849834776 0.44544935907016964 0.5
5 0.40509979849834776 0.44544935907016964 0.5
6 0.40509979849834776 0.44544935907016964 0.5
7 0.40509979849834776 0.44544935907016964 0.5
8 0.40509979849834776 0.44544935907016964 0.5
9 0.40509979849834776 0.44544935907016964 0.5
10 0.40509979849834776 0.44544935907016964 0.5
11 0.40509979849834776 0.44544935907016964 0.5
12 0.40509979849834776 0.44544935907016964 0.5
13 0.40509979849834776 0.44544935907016964 0.5
14 0.40509979849834776 0.44544935907016964 0.5
15 0.40509979849834776 0.44544935907016964 0.5
16 0.40509979849834776 0.44544935907016964 0.5
17 0.40509979849834776 0.44544935907016964 0.5

Bond Coeffs

1 88.14323902873691 0.5
2 31.109378480730676 0.5
3 145.17709957674313 0.5
4 124.4375139229227 0.5
5 103.69792826910225 0.5

Angle Coeffs

1 5.70670957211017 180
2 0.2508954340679416 180
3 25.498410040090054 180
4 16.057307780348264 180
5 9.292423483997835 180
6 0.48065871225416107 120
7 19.70539022776191 120
8 9.292423483997835 120
9 5.70670957211017 120
10 9.326163299978589 120
11 11.77221978031397 120
12 16.057307780348264 120

Atoms

1 1 1 -3.216588348914595 0.03552580263547096 0
2 1 2 3.7061177815050157 0.3070226034197267 0
3 1 3 10.717994044881703 0.15273980777509896 0
4 1 4 17.370405326593442 0.12633808210264416 0
5 1 4 24.61828793379277 0.09013237313141925 0
6 1 3 31.405243908921232 0.06183701707193463 0
7 1 2 38.358549715486994 0.18374941130670638 0
8 1 5 45.11340307655969 0.010286195116909137 0
9 1 5 52.08344317753702 0.005073785422497146 0
10 1 5 58.975786055838235 0.28366645601904406 0
11 1 2 66.04086207167647 0.016494035423420074 0
12 1 3 72.81940961265423 0.05362580458329291 0
13 1 4 79.88555254679135 0.23478630025334182 0
14 1 4 86.98168382144671 0.27542829097032595 0
15 1 3 93.72693926218403 0.16650218604503825 0
16 1 2 100.83232380589939 0.21701325923595416 0
17 1 5 107.54837908137667 0.2965376322640005 0
18 1 5 114.61620238501435 0.13277200107907405 0
19 1 5 121.51911359381286 0.11740940489200687 0
20 1 2 128.46957036125917 0.255334717101627 0
21 1 3 135.1898329371173 0.38088090789369017 0
22 1 4 142.34465495529318 0.01741542735922588 0
23 1 4 149.23262469136026 0.24881199958586847 0
24 1 3 155.90648173305075 0.021448636312503135 0
25 1 2 163.0397700143602 0.15139346357276473 0
26 1 4 0.17493277200105872 2.2945343893919756 0
27 1 6 6.943496628973954 2.038577879215984 0
28 1 7 14.131467230339492 2.35871960788697 0
29 1 8 20.929614777262085 2.0596885228342905 0
30 1 7 28.000812912188017 2.168408424600158 0
31 1 6 34.646818627477764 2.216050331800343 0
32 1 4 41.6531814703937 2.3887220900586588 0
33 1 6 48.68039525814531 2.281782103157629 0
34 1 6 55.64017607576768 2.1583121667135248 0
35 1 4 62.455951414742295 2.112434982958059 0
36 1 6 69.33087485995759 2.003856004169803 0
37 1 7 76.29865066101932 2.073047900010411 0
38 1 8 83.17476446636475 2.1091729964288133 0
39 1 7 90.38325235413274 2.3982821789910083 0
40 1 6 97.31996817804882 2.1267013962922285 0
41 1 4 104.0726346991814 2.1339118590064263 0
42 1 6 110.85735555346314 2.070990778214593 0
43 1 6 118.1435134090447 2.258352830913358 0
44 1 4 125.04110227828691 2.3136091023774403 0
45 1 6 131.88394291363983 2.314314562098761 0
46 1 7 138.77138105534044 2.147537346152348 0
47 1 8 145.70532363019484 2.042771347935101 0
48 1 7 152.46512819802894 2.178500823647859 0
49 1 6 159.55453281383427 2.2153940531535747 0
50 1 4 166.45850170638997 2.03020226110945 0
51 1 6 0.3316182407984473 6.16728013635361 0
52 1 4 7.2654179837141495 6.327592657591894 0
53 1 9 14.21467013298926 6.065217141896853 0
54 1 7 20.938476032413856 6.190401526080312 0
55 1 9 28.013719097213432 6.118581160089212 0
56 1 4 34.73942318273534 6.305260153886576 0
57 1 6 41.79860100927151 6.2020796384498835 0
58 1 9 48.781649197550855 6.319030525897896 0
59 1 9 55.72749123064353 6.186434727901506 0
60 1 6 62.51724068648143 6.07734121762234 0
61 1 4 69.44807975975935 6.26851960758534 0
62 1 9 76.54104104262674 6.328029345616735 0
63 1 7 83.40318062425172 6.137019893600679 0
64 1 9 90.36545201125892 6.0716276956669075 0
65 1 4 97.16318293018716 6.17559255109844 0
66 1 6 104.06560915336256 6.086791383220657 0
67 1 9 111.21224999048522 6.26625957971265 0
68 1 9 118.01459894899914 6.381419376116014 0
69 1 6 124.77346833039951 6.198899116351189 0
70 1 4 132.03213749134576 6.175679304219916 0
71 1 9 138.77973647078935 6.1449623231834485 0
72 1 7 145.8557320109748 6.285089203459365 0
73 1 9 152.60086052668956 6.297210808329309 0
74 1 4 159.65065580454288 6.200575992836767 0
75 1 6 166.59551347227685 6.073815168558369 0
76 1 3 -3.3557184420930013 8.05869445074863 0
77 1 4 3.641123841908832 8.346136208830746 0
78 1 6 10.558997628515453 8.25061897325639 0
79 1 9 17.67793194923175 8.1800240845709 0
80 1 9 24.46792384767034 8.356088979824662 0
81 1 6 31.381379371085007 8.211426638134798 0
82 1 4 38.15766990979672 8.015953750512615 0
83 1 9 45.10115983154064 8.381795058684613 0
84 1 7 51.96625441547778 8.123811457545967 0
85 1 9 58.91143332851946 8.23643400548119 0
86 1 4 66.19785004213207 8.029367719045474 0
87 1 6 73.12467876565586 8.16828398849738 0
88 1 9 79.93478862238938 8.047393360718173 0
89 1 9 86.95923786993029 8.018744147059072 0
90 1 6 93.661342567638 8.238133559943888 0
91 1 4 100.4898921750232 8.067407910310248 0
92 1 9 107.72646762604934 8.13579617418352 0
93 1 7 114.48138496583482 8.33208853520981 0
94 1 9 121.62543812749692 8.152944337332372 0
95 1 4 128.30598712552583 8.031589900930037 0
96 1 6 135.37132725103183 8.361345527517239 0
97 1 9 142.16975875760738 8.108004448161623 0
98 1 9 149.26903726267716 8.286846916176001 0
99 1 6 156.1216198295494 8.037219502380333 0
100 1 4 163.07483391749741 8.113137696897018 0
101 1 10 -3.2263371451204543 12.070757063417952 0
102 1 6 3.6106150767693275 12.370069878421363 0
103 1 4 10.77946927162731 12.20031599731218 0
104 1 6 17.565362592410025 12.161675707667454 0
105 1 6 24.599458625000683 12.01183138933054 0
106 1 4 31.43999732333567 12.389405113679402 0
107 1 6 38.23901904545507 12.242009698083391 0
108 1 7 45.349794217251755 12.206874290894824 0
109 1 8 52.3500012888546 12.364090810774428 0
110 1 7 59.09470807994185 12.117758863123356 0
111 1 6 65.82038908360633 12.240203577629416 0
112 1 4 72.92261360295275 12.137550634398481 0
113 1 6 79.73245981802204 12.318923482846449 0
114 1 6 86.73518829095201 12.26399548528954 0
115 1 4 93.62488502949874 12.003569579694645 0
116 1 6 100.83297857748737 12.314375457949833 0
117 1 7 107.47704242527217 12.063283392778525 0
118 1 8 114.65217805169556 12.116807317298496 0
119 1 7 121.27827404307314 12.364574051802611 0
120 1 6 128.51035029610205 12.018883253563219 0
121 1 4 135.15664893047756 12.215130973716464 0
122 1 6 142.20891237488237 12.122527866158176 0
123 1 6 148.96818789586212 12.276504559103955 0
124 1 4 155.9389352013671 12.197780715217693 0
125 1 6 163.07701529622426 12.118198808061635 0
126 1 9 0.16105982765241325 14.14950264484041 0
127 1 4 6.933996081234733 14.22863252396572 0
128 1 4 14.087602493795005 14.328982233357266 0
129 1 4 21.151904482182385 14.17578414719399 0
130 1 4 27.72892770857262 14.098361934897971 0
131 1 4 34.64269787270169 14.313233429394257 0
132 1 9 41.73429884480398 14.289234407304098 0
133 1 8 48.72125808976472 14.01319928980947 0
134 1 8 55.44734782054353 14.163047224894749 0
135 1 9 62.494698053410595 14.098585090921247 0
136 1 4 69.53690161305522 14.026709687469483 0
137 1 4 76.44863735617173 14.029291760735779 0
138 1 4 83.41813567539403 14.034542984483421 0
139 1 4 90.35906229496427 14.168050267981348 0
140 1 4 97.1730197016982 14.272437265389584 0
141 1 9 104.24332616761075 14.150598249213745 0
142 1 8 111.09930851517107 14.147672585958704 0
143 1 8 118.07475132332027 14.388861728246784 0
144 1 9 125.05618680626019 14.157984820214427 0
145 1 4 132.00053588872586 14.20761615940116 0
146 1 4 138.62428417396663 14.118801526898789 0
147 1 4 145.89215373674588 14.05417410026278 0
148 1 4 152.50517217664557 14.148200794170803 0
149 1 4 159.56632241970564 14.052467588633311 0
150 1 9 166.39390616480907 14.148523369312052 0
151 1 9 0.12225535545810816 18.22889445241826 0
152 1 4 7.287124340245486 18.201461150141967 0
153 1 4 13.861921906743692 18.34524536181383 0
154 1 4 21.184544232517645 18.230937724420745 0
155 1 4 28.08022795590074 18.33461976522254 0
156 1 4 34.89210566177132 18.031983320336384 0
157 1 9 41.859692730264534 18.377089849697924 0
158 1 8 48.845978522916965 18.067839817652917 0
159 1 8 55.63806017646965 18.15575189726215 0
160 1 9 62.571947517855605 18.119983164925305 0
161 1 4 69.31380518951826 18.166504895244223 0
162 1 4 76.5099700060833 18.095041527508442 0
163 1 4 83.3212913890039 18.081435674988768 0
164 1 4 90.39226859326483 18.203874235672465 0
165 1 4 97.27045252091268 18.081065241346728 0
166 1 9 103.93470117587502 18.264172737698416 0
167 1 8 111.05137891101339 18.142477089432013 0
168 1 8 118.15085903858629 18.163611179990596 0
169 1 9 124.84821073534377 18.020418833663065 0
170 1 4 131.84408987755307 18.358333985354317 0
171 1 4 138.6620592746897 18.285556234814607 0
172 1 4 145.8747638196477 18.096083070478585 0
173 1 4 152.53023846218386 18.057863471778518 0
174 1 4 159.5408824319699 18.01659901769997 0
175 1 9 166.50179831465118 18.349078728291047 0
176 1 10 -3.220781804428585 20.343654556325376 0
177 1 6 3.482507802321274 20.038960148240903 0
178 1 4 10.439921815127118 20.396366482510402 0
179 1 6 17.485889877095047 20.092965142638015 0
180 1 6 24.544026907568867 20.14447755951231 0
181 1 4 31.291119647662505 20.327883144378855 0
182 1 6 38.18702354925306 20.00803870347469 0
183 1 7 45.194578301511086 20.027691507426535 0
184 1 8 52.10542717780923 20.225408108732967 0
185 1 7 59.20679440808345 20.322163437106955 0
186 1 6 65.96321689931459 20.297758006121924 0
187 1 4 72.87191245016886 20.196114870434982 0
188 1 6 79.74563591692196 20.240217757357776 0
189 1 6 86.94366212807266 20.02265727695022 0
190 1 4 93.84072638106136 20.049719133037136 0
191 1 6 100.62648202199593 20.16492910579738 0
192 1 7 107.76820777028092 20.178668336281458 0
193 1 8 114.50562825162687 20.27411533914095 0
194 1 7 121.45621540428105 20.318328539525083 0
195 1 6 128.47157167725138 20.33973666676751 0
196 1 4 135.42087447328277 20.370905351071368 0
197 1 6 142.18352401190572 20.19413625262952 0
198 1 6 149.0635346284027 20.1657602360506 0
199 1 4 156.21613446302436 20.379409060345765 0
200 1 6 163.06927804706794 20.19403039049958 0
201 1 3 -3.1835080715236588 24.371495483385683 0
202 1 4 3.6082777554883605 24.311154198031424 0
203 1 6 10.677092876207096 24.22635116951075 0
204 1 9 17.564440847924168 24.219755285010972 0
205 1 9 24.465078743280777 24.37207218149275 0
206 1 6 31.23988132157368 24.234457825458374 0
207 1 4 38.382562445964446 24.015708995881734 0
208 1 9 45.166925984402084 24.13831252523366 0
209 1 7 52.06603723613021 24.244711512268424 0
210 1 9 59.013709479972455 24.365501291818628 0
211 1 4 66.1356972161418 24.183721604786147 0
212 1 6 72.88568647083196 24.376408886479805 0
213 1 9 79.74028048523584 24.06652881283474 0
214 1 9 86.93193844269014 24.028943749947786 0
215 1 6 93.59497818444981 24.315008236001365 0
216 1 4 100.75359693971106 24.3115151772771 0
217 1 9 107.50729733641083 24.052220241223537 0
218 1 7 114.44512190506057 24.05627840660711 0
219 1 9 121.34129677385528 24.348592819953172 0
220 1 4 128.31434738985806 24.054914262176702 0
221 1 6 135.23276653940542 24.214182403044592 0
222 1 9 142.1708346853908 24.243286012449122 0
223 1 9 149.2753182104241 24.28006018754703 0
224 1 6 156.1138239047687 24.021654698427312 0
225 1 4 163.17439973742663 24.212813859413956 0
226 1 6 0.3015763084824075 26.12739725865084 0
227 1 4 7.07663987459088 26.048715574292412 0
228 1 9 13.931934074317603 26.384277120249536 0
229 1 7 20.859736112356938 26.126635540435455 0
230 1 9 28.042447103958562 26.04775693050093 0
231 1 4 34.831661143818614 26.126203841222555 0
232 1 6 41.6380372709541 26.13602584602365 0
233 1 9 48.81711504908253 26.12869822030738 0
234 1 9 55.5659240414479 26.123101043070722 0
235 1 6 62.4316257816162 26.17978374360322 0
236 1 4 69.34489342641943 26.183036596773757 0
237 1 9 76.24674905053219 26.096148773327272 0
238 1 7 83.24366585284362 26.040112340555925 0
239 1 9 90.08441596368226 26.00831802076876 0
240 1 4 97.02031455915643 26.1664541411364 0
241 1 6 104.10287473581418 26.321390553174083 0
242 1 9 110.88658675531629 26.362958933456493 0
243 1 9 117.91090731113319 26.098585677554965 0
244 1 6 125.00786846634404 26.266404883870848 0
245 1 4 131.87584346961043 26.245772734535393 0
246 1 9 138.62977943514534 26.178751960958625 0
247 1 7 145.89033292563252 26.27462020410281 0
248 1 9 152.55603720926595 26.03927548040611 0
249 1 4 159.3813438614742 26.085717893840474 0
250 1 6 166.35112382620284 26.15619771811691 0
251 1 4 0.05716650139864985 30.11458574111652 0
252 1 6 7.07369686970436 30.218772515371313 0
253 1 7 13.991059037789581 30.07366604757115 0
254 1 8 20.80622972449385 30.183631147898858 0
255 1 7 28.020205817685174 30.34533438260114 0
256 1 6 34.762430547761404 30.30648007968378 0
257 1 4 41.862058053497876 30.199388003253752 0
258 1 6 48.583206720327844 30.250910962073917 0
259 1 6 55.5053435868479 30.29242445778184 0
260 1 4 62.646868404274976 30.158182189788985 0
261 1 6 69.62655123795382 30.20499708362778 0
262 1 7 76.35533042613747 30.308182715123188 0
263 1 8 83.17453235161096 30.295321039445458 0
264 1 7 90.0904683483461 30.147889854737077 0
265 1 6 97.32324473420648 30.029093261914493 0
266 1 4 104.17224109041693 30.080205307068574 0
267 1 6 111.17706732375194 30.36433862995138 0
268 1 6 118.03466644531542 30.024831067513595 0
269 1 4 125.09690576412586 30.399974339305423 0
270 1 6 131.86587031064485 30.16012118938907 0
271 1 7 138.82866478678764 30.156692933310843 0
272 1 8 145.7602629062659 30.278346957735433 0
273 1 7 152.79009466914636 30.09578709378286 0
274 1 6 159.50564032693734 30.00523968382554 0
275 1 4 166.29951407161238 30.24377934030901 0
276 1 2 -3.3313036046565467 32.22795717114698 0
277 1 4 3.598630019091008 32.30436725456898 0
278 1 9 10.652039363577401 32.224704493418 0
279 1 8 17.325298121573066 32.014147223485274 0
280 1 8 24.391574959399048 32.36600524639896 0
281 1 9 31.512541048655454 32.234154892887084 0
282 1 4 38.1193627064889 32.39914787892587 0
283 1 4 45.27811622238605 32.29426583331882 0
284 1 4 52.20974433715936 32.168719261358056 0
285 1 4 59.19558551967567 32.35856838631498 0
286 1 4 65.82363531719868 32.11789011646086 0
287 1 9 72.83486405346562 32.260637958803414 0
288 1 8 79.84887926436572 32.35273937328728 0
289 1 8 86.64792591361477 32.27288492443244 0
290 1 9 93.6617081739793 32.383923205206344 0
291 1 4 100.49661014324056 32.29522215239862 0
292 1 4 107.67282298561057 32.19562930584735 0
293 1 4 114.3844196477096 32.29776944319575 0
294 1 4 121.30571222314943 32.3815385507488 0
295 1 4 128.41842150900357 32.37533146087325 0
296 1 9 135.3721803692456 32.30295156754663 0
297 1 8 142.39588365117007 32.2301717028165 0
298 1 8 149.05295092162578 32.347088495380866 0
299 1 9 156.04409615295725 32.29607624978756 0
300 1 4 162.9941115358172 32.14488503924182 0
301 1 2 -3.4208085574100293 36.289787407363626 0
302 1 4 3.7236929754577535 36.177850279544245 0
303 1 9 10.402453308945674 36.28666288923851 0
304 1 8 17.366709102913077 36.0673269607738 0
305 1 8 24.28584098406866 36.273308006864895 0
306 1 9 31.52558806904515 36.353270067659786 0
307 1 4 38.17512352862341 36.15570634484176 0
308 1 4 45.20337359865274 36.09128017977694 0
309 1 4 52.06639251220787 36.22034981893262 0
310 1 4 59.27598378503851 36.18432301081082 0
311 1 4 65.95925725558631 36.25676192833979 0
312 1 9 73.11347570320741 36.16835823650194 0
313 1 8 79.69302795101616 36.36180636191176 0
314 1 8 86.93697801364705 36.08695430741793 0
315 1 9 93.83536392376169 36.225519017012246 0
316 1 4 100.78715644475581 36.189633467184144 0
317 1 4 107.52223569963559 36.03498655853335 0
318 1 4 114.38001538192567 36.29089180117474 0
319 1 4 121.42786804151949 36.136233416628464 0
320 1 4 128.37054975155 36.32470075465436 0
321 1 9 135.1640560372033 36.390305311896086 0
322 1 8 142.32409649897522 36.21896490047702 0
323 1 8 149.10936180493056 36.329916188457545 0
324 1 9 156.2254925414039 36.148473956513996 0
325 1 4 163.11462523288537 36.276811809970596 0
326 1 4 0.39773479879128104 38.05683686284673 0
327 1 6 6.95593523863629 38.001796648208675 0
328 1 7 13.962905872038686 38.2440492415576 0
329 1 8 21.01764350873603 38.13180641329193 0
330 1 7 28.0701981416957 38.185953814532695 0
331 1 6 34.77156020723989 38.05434957495482 0
332 1 4 41.901551518666366 38.115260200739215 0
333 1 6 48.60901574405208 38.09487615458012 0
334 1 6 55.452411429446244 38.210923071245865 0
335 1 4 62.60629828811819 38.31021464546632 0
336 1 6 69.3955763057285 38.01175935734539 0
337 1 7 76.24364448609651 38.2427811320391 0
338 1 8 83.41012413017947 38.101509514017486 0
339 1 7 90.34578746124852 38.29830150647176 0
340 1 6 97.04451256032837 38.167845577349475 0
341 1 4 104.29665724842046 38.22411093950856 0
342 1 6 111.05117999173295 38.112389818506394 0
343 1 6 118.14356048567468 38.13915063206364 0
344 1 4 125.0421012826018 38.33693536973988 0
345 1 6 131.95499672353927 38.00890779388968 0
346 1 7 138.94819011831774 38.275991052032126 0
347 1 8 145.7916735589835 38.21796758821952 0
348 1 7 152.53594644437828 38.332458371560485 0
349 1 6 159.37644960805153 38.03928764707384 0
350 1 4 166.565372859693 38.39694378512374 0
351 1 6 0.37114548913895856 42.34335779648503 0
352 1 4 7.296840536116874 42.003306052634684 0
353 1 9 14.152050426534897 42.24750087919748 0
354 1 7 20.98277385162991 42.152780647694314 0
355 1 9 27.94097255161604 42.2275083946997 0
356 1 4 34.89162234258833 42.13132526231972 0
357 1 6 41.96720773224543 42.39734669512588 0
358 1 9 48.79093717019971 42.12146129142049 0
359 1 9 55.73016739801471 42.2282367470177 0
360 1 6 62.38159169843427 42.16691597652027 0
361 1 4 69.39786404299475 42.11195434944095 0
362 1 9 76.43192716178615 42.278307547594274 0
363 1 7 83.41953299738086 42.11186439502785 0
364 1 9 90.3102293970312 42.07645490339644 0
365 1 4 97.36847374826475 42.19029038999641 0
366 1 6 104.17568818333552 42.3334539882287 0
367 1 9 110.9304059599908 42.22757369452762 0
368 1 9 118.0654621470542 42.29623207299809 0
369 1 6 124.97696831200483 42.167996788966995 0
370 1 4 131.81306588908444 42.30541711413529 0
371 1 9 138.71589227918443 42.120705921353085 0
372 1 7 145.76786918908138 42.080654881611906 0
373 1 9 152.50891026074177 42.2531542304824 0
374 1 4 159.74729370572555 42.23962809265125 0
375 1 6 166.62886460823307 42.28378133363613 0
376 1 3 -3.090713515640638 44.37479769770713 0
377 1 4 3.530552650215717 44.3051805247179 0
378 1 6 10.664545673701639 44.18195859232299 0
379 1 9 17.445508120187508 44.031963266268576 0
380 1 9 24.312408356173147 44.15157774871674 0
381 1 6 31.26147023271379 44.25097350037518 0
382 1 4 38.12891258973389 44.11165417735572 0
383 1 9 45.35991611643321 44.3039894352553 0
384 1 7 51.97899939399389 44.257044667964585 0
385 1 9 59.03054064916159 44.36760445399767 0
386 1 4 65.82087937288244 44.14763903580412 0
387 1 6 72.96614344354396 44.24718831215626 0
388 1 9 79.82696823564221 44.102154973639365 0
389 1 9 86.88006339144887 44.15245758383371 0
390 1 6 93.85838703384596 44.26392625457504 0
391 1 4 100.77893194167987 44.13517891370872 0
392 1 9 107.58801613877806 44.14435290533465 0
393 1 7 114.46315133051542 44.10507167734779 0
394 1 9 121.50551211896007 44.31326851885862 0
395 1 4 128.51255139957192 44.148003174166895 0
396 1 6 135.1591953206601 44.16011142655934 0
397 1 9 142.25320929030428 44.3458188305401 0
398 1 9 149.27960148604282 44.199567752854456 0
399 1 6 156.04205727418739 44.20287796358707 0
400 1 4 162.97175988421654 44.379253927944625 0
401 1 10 -3.0884942437246536 48.175042693546644 0
402 1 6 3.4851180082289046 48.36763286710988 0
403 1 4 10.506814644639007 48.22179745606568 0
404 1 6 17.456080810714337 48.19356002827211 0
405 1 6 24.310707273561338 48.38827871149256 0
406 1 4 31.36723283516898 48.3415377748143 0
407 1 6 38.49444353629681 48.340420190679126 0
408 1 7 45.224781973652135 48.222774503193214 0
409 1 8 52.03706366578457 48.0565794003304 0
410 1 7 59.15557843478643 48.27227563473819 0
411 1 6 65.84611147442712 48.295910537772905 0
412 1 4 73.02999598307855 48.39249307513416 0
413 1 6 79.98262840496628 48.03382700267032 0
414 1 6 86.91033176480366 48.34349412644443 0
415 1 4 93.85256656372525 48.31952748233361 0
416 1 6 100.70516635165062 48.29486106408994 0
417 1 7 107.57086657265575 48.04430097447025 0
418 1 8 114.33025626870685 48.32164851049247 0
419 1 7 121.53239072227268 48.24502743713385 0
420 1 6 128.41430051232825 48.05781742790663 0
421 1 4 135.38702778913796 48.11120067021972 0
422 1 6 142.0370721013507 48.26182551860155 0
423 1 6 149.0449734406499 48.23243474747892 0
424 1 4 156.08557732353998 48.07737289659323 0
425 1 6 163.000879029417 48.19600432345594 0
426 1 9 0.26395323673602034 50.35461300182734 0
427 1 4 7.0784153269295835 50.04909148779495 0
428 1 4 14.243463740843362 50.225612718868014 0
429 1 4 21.1010050578741 50.39619482379439 0
430 1 4 27.851566109218528 50.386353452430654 0
431 1 4 34.90833259177181 50.3606334652646 0
432 1 9 41.71560009353106 50.30676557847141 0
433 1 8 48.74576059130717 50.03075778416763 0
434 1 8 55.66137215063744 50.24284778686585 0
435 1 9 62.580422270980485 50.37620389669701 0
436 1 4 69.43977346960229 50.049419268401316 0
437 1 4 76.50699966966766 50.38068644050462 0
438 1 4 83.2688780509946 50.345968536390515 0
439 1 4 90.37786552447197 50.24580088978961 0
440 1 4 97.00550254125156 50.28303156144497 0
441 1 9 104.17543658270733 50.07258730942773 0
442 1 8 110.85224323998582 50.387607078808195 0
443 1 8 118.1444268645246 50.07931235613761 0
444 1 9 124.85011948188759 50.399062032641254 0
445 1 4 132.00208295517646 50.2742688845729 0
446 1 4 138.7876010081718 50.27191331546116 0
447 1 4 145.75733288875907 50.06015598035218 0
448 1 4 152.7655159546766 50.10719702349427 0
449 1 4 159.51441348924777 50.22535560676598 0
450 1 9 166.66145527176235 50.19637313525025 0
451 1 9 0.07032090572052692 54.0392281707066 0
452 1 4 6.990230522500933 54.166437530824965 0
453 1 4 14.074109455941553 54.213673332484646 0
454 1 4 20.912008028218143 54.38611367853482 0
455 1 4 28.06657909610923 54.11259894160296 0
456 1 4 34.93280964626767 54.16709017350396 0
457 1 9 41.733542239873444 54.397218195490126 0
458 1 8 48.64207263885575 54.05296861497209 0
459 1 8 55.46242485697536 54.231281024809846 0
460 1 9 62.53687760792518 54.348114648846106 0
461 1 4 69.66439185723303 54.14426909964527 0
462 1 4 76.24936796094438 54.22499010022408 0
463 1 4 83.39505782806532 54.1244672558193 0
464 1 4 90.45488636558792 54.039229920835005 0
465 1 4 97.24583605169185 54.14329881715415 0
466 1 9 104.18805677901899 54.02839015338942 0
467 1 8 110.893991637844 54.39066080896011 0
468 1 8 118.09356660725095 54.325571211562846 0
469 1 9 124.99643538623268 54.25341069646344 0
470 1 4 132.0106517156835 54.29943006045448 0
471 1 4 138.79864701615176 54.0772273196969 0
472 1 4 145.8453073561058 54.360304422506964 0
473 1 4 152.60985759236766 54.34938410578021 0
474 1 4 159.4409767164959 54.0641755203228 0
475 1 9 166.45320825306544 54.34532834464445 0
476 1 10 -3.4070879329227197 56.03198530371901 0
477 1 6 3.84952915168408 56.17739314444191 0
478 1 4 10.398745542841072 56.2216602011762 0
479 1 6 17.502312570032455 56.361079083375465 0
480 1 6 24.490055468086048 56.117765097112084 0
481 1 4 31.4660470702833 56.02433802396748 0
482 1 6 38.17936654686803 56.134816519997614 0
483 1 7 45.14345576074789 56.17541374550684 0
484 1 8 52.34006975081743 56.241678118020914 0
485 1 7 59.04378768409062 56.22445025117641 0
486 1 6 66.08433319547005 56.38712661762019 0
487 1 4 72.75784402305614 56.255224096872126 0
488 1 6 79.78449747331007 56.38306826197707 0
489 1 6 86.66049843540326 56.0576768378356 0
490 1 4 93.6708618142219 56.02540912197998 0
491 1 6 100.76982290918562 56.08232981138985 0
492 1 7 107.44991437446815 56.038285425013754 0
493 1 8 114.5098699705644 56.1513591561639 0
494 1 7 121.482878666448 56.131263329757054 0
495 1 6 128.22748042887727 56.3556484517205 0
496 1 4 135.38557466860755 56.01547520275915 0
497 1 6 142.10497912227635 56.01290006786431 0
498 1 6 149.2844718096732 56.31059951809369 0
499 1 4 155.99873248339742 56.14628499770236 0
500 1 6 163.0298848116226 56.17200872974891 0
501 1 3 -3.194828297582307 60.102830908549635 0
502 1 4 3.4838921278381485 60.378356072794325 0
503 1 6 10.612592909229908 60.036355120441456 0
504 1 9 17.526240867375762 60.216653603448684 0
505 1 9 24.535392245857377 60.26860157863713 0
506 1 6 31.31307541744738 60.21485114221014 0
507 1 4 38.24375649638443 60.036957531940715 0
508 1 9 45.168946833143565 60.192835114434516 0
509 1 7 52.103263882430575 60.09996129543779 0
510 1 9 59.03954776194666 60.225364115907325 0
511 1 4 65.84978058587443 60.37455650561449 0
512 1 6 73.06605227310563 60.07558497809074 0
513 1 9 79.87433158895946 60.21055940518887 0
514 1 9 86.72560626800376 60.038954190522155 0
515 1 6 93.79648144891179 60.05299769894734 0
516 1 4 100.61954753682801 60.1123049100652 0
517 1 9 107.73982487061461 60.00030259276089 0
518 1 7 114.42777442607594 60.155859420008824 0
519 1 9 121.63637218955479 60.01894995982688 0
520 1 4 128.51915112840982 60.12839897963834 0
521 1 6 135.19884607201016 60.027761276168896 0
522 1 9 142.03456231163105 60.340770764747084 0
523 1 9 149.27233784042969 60.21690759341084 0
524 1 6 156.1454227531933 60.20169287641624 0
525 1 4 163.08732043103868 60.225536658662556 0
526 1 6 0.3645603826562633 62.165932178436 0
527 1 4 7.224435186064035 62.017651012475575 0
528 1 9 14.052172201785776 62.02903209581789 0
529 1 7 20.94729253620403 62.006957714239206 0
530 1 9 27.71696436074 62.189633925382786 0
531 1 4 34.77770592281107 62.162730979747266 0
532 1 6 41.64089234098471 62.298098253312695 0
533 1 9 48.757945288943716 62.09593467807369 0
534 1 9 55.76516371384434 62.08493199536989 0
535 1 6 62.67412236004701 62.01067854869605 0
536 1 4 69.3430498947087 62.33888737214275 0
537 1 9 76.31279657700594 62.35399658076786 0
538 1 7 83.47414451235883 62.189983931675044 0
539 1 9 90.44904995812367 62.33352198938017 0
540 1 4 97.36824048073878 62.24283272325764 0
541 1 6 104.20663408173748 62.290608996230795 0
542 1 9 111.05296389251951 62.25822883162581 0
543 1 9 117.80755418772178 62.02666179311648 0
544 1 6 124.97608393920838 62.15481577035966 0
545 1 4 131.7228574790076 62.19718146980851 0
546 1 9 138.87226815276583 62.19911529680263 0
547 1 7 145.68753081714664 62.081961675932654 0
548 1 9 152.81070317674872 62.23571948163726 0
549 1 4 159.56160258568093 62.192817276793626 0
550 1 6 166.6114847316392 62.23326718672884 0
551 1 4 0.30279114488319836 66.08613541328273 0
552 1 6 6.951660165463886 66.31997308121566 0
553 1 7 13.881545402764369 66.32295395197954 0
554 1 8 20.884358511857037 66.25321585822446 0
555 1 7 27.731983281403647 66.17546359193769 0
556 1 6 34.78193814868286 66.1781410135124 0
557 1 4 41.8289338336025 66.26134212408515 0
558 1 6 48.76059842315566 66.04831164993985 0
559 1 6 55.79452756225314 66.33500511351954 0
560 1 4 62.529841891366125 66.22334918330544 0
561 1 6 69.5913688301037 66.20726534484656 0
562 1 7 76.29025954778308 66.38712429350231 0
563 1 8 83.2165577994293 66.34217699984788 0
564 1 7 90.31999140577786 66.33532939545601 0
565 1 6 97.1751852085778 66.22926149749713 0
566 1 4 104.24036350982313 66.08210671474751 0
567 1 6 111.1014600928058 66.3252741840186 0
568 1 6 118.02139283276303 66.17515733600489 0
569 1 4 125.1046256360018 66.27005306765999 0
570 1 6 131.98523008454796 66.10529634553623 0
571 1 7 138.95187996279122 66.38804131333701 0
572 1 8 145.6995318406862 66.0020830194348 0
573 1 7 152.5699543526991 66.28048483458115 0
574 1 6 159.51292654842086 66.20417141713668 0
575 1 4 166.42525130643367 66.34198682215697 0
576 1 2 -3.0687779000768685 68.15444178225044 0
577 1 4 3.649251676291528 68.01169199814609 0
578 1 9 10.468273442735184 68.16245929293365 0
579 1 8 17.42309600420854 68.33943382517114 0
580 1 8 24.578130464382888 68.1068379926109 0
581 1 9 31.446178498140174 68.0030087173628 0
582 1 4 38.39734470264682 68.15982981032212 0
583 1 4 45.14507962421982 68.12956468528223 0
584 1 4 52.08028499961639 68.36907534615007 0
585 1 4 58.90565354805015 68.05751944284174 0
586 1 4 66.19179994322035 68.39356535572884 0
587 1 9 72.94223861911195 68.37429053969888 0
588 1 8 79.75990941371957 68.36932928138945 0
589 1 8 86.62364714220976 68.35076629725302 0