
14309 atoms
14896 bonds
16659 angles
23 atom types
7 bond types
21 angle types

-5.680607966083864 171.52447279080386 xlo xhi
-2.0 148.0 ylo yhi
-4 4 zlo zhi


Masses

1 0.00016785360137023348
2 0.0002517804020553502
3 0.0005874876047958172
4 0.0006714144054809339
5 0.00035668890291174615
6 0.0008812314071937258
7 0.00033570720274046697
8 0.0004196340034255837
9 0.0010910484089065176
10 0.0010071216082214007
11 0.0013008654106193094
12 0.0009231948075362842
13 0.0006294510051383755
14 0.001007121608221401
15 0.0005035608041107005
16 0.00041963400342558366
17 0.00033570720274046697
18 0.00016785360137023348
19 0.0005035608041107005
20 0.0006714144054809339
21 0.0008392680068511673
22 0.0005455242044532588
23 0.0009231948075362842

Pair Coeffs

1 0.40509979849834776 0.44544935907016964 0.5
2 0.40509979849834776 0.44544935907016964 0.5
3 0.40509979849834776 0.44544935907016964 0.5
4 0.40509979849834776 0.44544935907016964 0.5
5 0.40509979849834776 0.44544935907016964 0.5
6 0.40509979849834776 0.44544935907016964 0.5
7 0.40509979849834776 0.44544935907016964 0.5
8 0.40509979849834776 0.44544935907016964 0.5
9 0.40509979849834776 0.44544935907016964 0.5
10 0.40509979849834776 0.44544935907016964 0.5
11 0.40509979849834776 0.44544935907016964 0.5
12 0.40509979849834776 0.44544935907016964 0.5
13 0.40509979849834776 0.44544935907016964 0.5
14 0.40509979849834776 0.44544935907016964 0.5
15 0.40509979849834776 0.44544935907016964 0.5
16 0.40509979849834776 0.44544935907016964 0.5
17 0.40509979849834776 0.44544935907016964 0.5
18 0.40509979849834776 0.44544935907016964 0.5
19 0.40509979849834776 0.44544935907016964 0.5
20 0.40509979849834776 0.44544935907016964 0.5
21 0.40509979849834776 0.44544935907016964 0.5
22 0.40509979849834776 0.44544935907016964 0.5
23 0.40509979849834776 0.44544935907016964 0.5

Bond Coeffs

1 67.14144054809339 0.5
2 33.57072027404669 0.5
3 100.71216082214009 0.5
4 134.28288109618677 0.5
5 167.85360137023346 0.5
6 109.10484089065176 0.5
7 184.63896150725682 0.5

Angle Coeffs

1 2.5222650315159174 180
2 0.3152831289394897 180
3 8.512644481366225 180
4 20.17812025212734 180
5 39.410391117436205 180
6 10.823078660625919 180
7 52.455230577307596 180
8 0.5605033403368705 120
9 11.973829600163475 120
10 14.001060002247078 120
11 0.612717412012436 120
12 45.00663284196278 120
13 2.5222650315159174 120
14 3.89149462005313 120
15 26.690635254136698 120
16 20.17812025212734 120
17 0.6080460343833015 120
18 8.512644481366225 120
19 17.943813402622776 120
20 10.823078660625919 120
21 39.410391117436205 120

Atoms

1 1 1 -3.2308109442763615 0.18814718836675773 0
2 1 2 3.6082984234194377 0.18286224718790473 0
3 1 3 10.488633372136555 0.10219677175059845 0
4 1 4 17.52411536881055 0.1215849623205667 0
5 1 5 24.612906108708327 0.18106022576482075 0
6 1 6 31.300922893436905 0.16996887356158347 0
7 1 6 38.14566200305111 0.2703662298185762 0
8 1 5 45.13516400678637 0.02489772661860523 0
9 1 4 52.21596497203591 0.3605394012461467 0
10 1 3 59.27472556109964 0.37000187515811694 0
11 1 2 66.16920486555868 0.08696858092879389 0
12 1 7 72.76212029490368 0.09490391878802673 0
13 1 7 79.76279680259128 0.19646041137139086 0
14 1 7 86.73706761117654 0.19987574057969534 0
15 1 7 93.8147629976165 0.3290920032192006 0
16 1 7 100.80509960776223 0.2441375271569386 0
17 1 2 107.6006940590591 0.3636126907945248 0
18 1 3 114.44456610100235 0.23454731832123882 0
19 1 4 121.57219768605235 0.12117726487516736 0
20 1 5 128.22068241822436 0.25517749560026565 0
21 1 6 135.26654977620115 0.19346370079672026 0
22 1 6 142.08270005295125 0.06873140033540613 0
23 1 5 149.17182907598757 0.21149635342695594 0
24 1 4 156.05846260800385 0.11411065061013557 0
25 1 3 163.20843982967492 0.06712348031767364 0
26 1 8 0.23333084314833563 2.1211451699306823 0
27 1 3 7.274968596440549 2.2155832493721443 0
28 1 9 14.178691948884541 2.3736468947347324 0
29 1 3 20.870580074266304 2.2020760385264326 0
30 1 10 27.82176989772857 2.319254118871215 0
31 1 11 35.012206162927015 2.099300239299511 0
32 1 10 41.88781198959819 2.0828507418517255 0
33 1 3 48.526797076744266 2.2715132368955255 0
34 1 9 55.79049972379921 2.184370193912919 0
35 1 3 62.75158132953306 2.2663583139575008 0
36 1 8 69.49322615576567 2.087802844714183 0
37 1 3 76.3107952411877 2.0666071677833773 0
38 1 3 83.18817022645936 2.2317385800268696 0
39 1 3 90.09096498518134 2.032652130622691 0
40 1 3 97.02877989564229 2.024820628519706 0
41 1 8 104.2628461587847 2.0135559659957214 0
42 1 3 111.12864229248137 2.0348553294875957 0
43 1 9 117.96629518612086 2.0601354205858637 0
44 1 3 125.06773607937384 2.314495802112699 0
45 1 10 132.03510901877442 2.3259749369357436 0
46 1 11 138.93665403032531 2.196579667933375 0
47 1 10 145.74626408460534 2.3781627095941964 0
48 1 3 152.64716268876907 2.1420143360678416 0
49 1 9 159.69295401467394 2.3590206856085096 0
50 1 3 166.4534890015147 2.1062398002217786 0
51 1 3 0.2184709125561641 6.02449935895184 0
52 1 8 7.254890199693139 6.152773967242734 0
53 1 12 14.029554082665081 6.324116146978324 0
54 1 12 21.05073924441526 6.098611488456466 0
55 1 13 27.778894689215576 6.122251585721612 0
56 1 14 34.780234234945304 6.2624743917373085 0
57 1 13 41.87536383257608 6.02595448576036 0
58 1 12 48.603765276375924 6.126648258872826 0
59 1 12 55.82449297409449 6.3657789160827996 0
60 1 8 62.553678232992795 6.184520442631627 0
61 1 3 69.67617422465798 6.105853138176903 0
62 1 12 76.39224115489223 6.175467438768613 0
63 1 12 83.43164730725165 6.186905134990339 0
64 1 12 90.26830811915492 6.227853434203133 0
65 1 12 97.12586447608825 6.3997607425835215 0
66 1 3 103.95803459264427 6.191350550243173 0
67 1 8 111.01939325525973 6.084129752684102 0
68 1 12 118.1441453598376 6.294489929287877 0
69 1 12 124.87934583032013 6.050527112297525 0
70 1 13 131.94996304597453 6.370580985464365 0
71 1 14 138.58922600103162 6.024676981303286 0
72 1 13 145.5685080172682 6.081614317761588 0
73 1 12 152.45593673631993 6.1292101018843725 0
74 1 12 159.62438072491955 6.101196341002165 0
75 1 8 166.58072077471655 6.3001038479125935 0
76 1 3 -3.3984566989152354 8.111645902983087 0
77 1 8 3.5139915708916605 8.310351887310022 0
78 1 3 10.587998342821932 8.323282587514814 0
79 1 9 17.376222163275862 8.231897784401273 0
80 1 3 24.56512167806396 8.080272353198058 0
81 1 13 31.298066872785647 8.259599836504487 0
82 1 13 38.182451672181784 8.3959432115168 0
83 1 3 45.15836939609069 8.249602402836645 0
84 1 9 52.251053450006346 8.087421206626672 0
85 1 3 59.046826874667126 8.093579391849417 0
86 1 8 65.82329474059746 8.010388053208503 0
87 1 12 72.93575268792445 8.369045456609742 0
88 1 9 79.67669876026787 8.026075093098028 0
89 1 9 86.7185264685398 8.399518278745013 0
90 1 9 93.88690647574977 8.289855001350942 0
91 1 12 100.54273405197341 8.289219206236398 0
92 1 8 107.6199138262892 8.152050233023385 0
93 1 3 114.37842659560815 8.226185129709915 0
94 1 9 121.61766108358105 8.116456321064037 0
95 1 3 128.25677526949312 8.359331723750556 0
96 1 13 135.2641667079858 8.337537161773124 0
97 1 13 142.39191591921536 8.049713016907045 0
98 1 3 148.9930313029473 8.030656538293194 0
99 1 9 156.0283132807567 8.317144794461136 0
100 1 3 162.87379970367067 8.11207814483006 0
101 1 4 -3.1670028672159174 12.08464486212314 0
102 1 3 3.4878633028813235 12.074254139714485 0
103 1 8 10.742803327079512 12.050366402667118 0
104 1 12 17.597643134386427 12.211519421205214 0
105 1 12 24.449571283277596 12.331829661506147 0
106 1 3 31.27451889507601 12.306062400716804 0
107 1 3 38.32761504535912 12.275126609093705 0
108 1 12 45.302410745486995 12.167151862346337 0
109 1 12 51.96604720851422 12.332997295914945 0
110 1 8 58.993289283603055 12.060473024441055 0
111 1 3 66.09399047859614 12.369315980846151 0
112 1 9 72.92476040201252 12.140424285253427 0
113 1 12 79.73458324002738 12.167874679187639 0
114 1 12 86.85891541120237 12.33435418853009 0
115 1 12 93.84925705564925 12.164484891589586 0
116 1 9 100.46544398470301 12.14975283396901 0
117 1 3 107.51801382124982 12.385618186607212 0
118 1 8 114.37982693253548 12.127899142767776 0
119 1 12 121.25775506437047 12.391249599528852 0
120 1 12 128.29013132733394 12.097408203465262 0
121 1 3 135.1834237611431 12.233954880418285 0
122 1 3 142.21579602909017 12.059393763607472 0
123 1 12 149.2934158572151 12.397077264833566 0
124 1 12 156.01981332552072 12.383794979898612 0
125 1 8 163.07463623759514 12.166520332380353 0
126 1 12 0.1597741244328581 14.342472052861293 0
127 1 8 7.196442936004381 14.177104663184343 0
128 1 3 13.92324076741612 14.300879718996269 0
129 1 9 20.960967685758984 14.356016194659723 0
130 1 12 27.9835368664844 14.27124061683323 0
131 1 12 35.01306171592684 14.238638366471854 0
132 1 12 41.59241037418136 14.136653108786598 0
133 1 9 48.5847339975485 14.220251165441228 0
134 1 3 55.4322877487921 14.114986214213573 0
135 1 8 62.56449572798711 14.213661454589657 0
136 1 12 69.56616252976518 14.245886068563697 0
137 1 12 76.40519658525675 14.107698951375529 0
138 1 3 83.14293435914357 14.112097883093572 0
139 1 3 90.26570134021405 14.055183004228995 0
140 1 12 97.13722418973957 14.069482574439036 0
141 1 12 104.11845079587879 14.312393533975435 0
142 1 8 111.09200731919293 14.135116066977147 0
143 1 3 117.99248738281777 14.231722433691548 0
144 1 9 125.03544065846343 14.224267886255069 0
145 1 12 131.98007976024078 14.234221688154179 0
146 1 12 138.7525867899479 14.329791231212253 0
147 1 12 145.81803216495646 14.023964808693465 0
148 1 9 152.5945967671802 14.21534335140675 0
149 1 3 159.73503054709775 14.249321734398231 0
150 1 8 166.4355022412866 14.179667457135697 0
151 1 9 0.2094258436770912 18.06029248774603 0
152 1 3 6.930988080385144 18.37115706216966 0
153 1 8 14.134405745838352 18.233555368435756 0
154 1 12 21.04669401552321 18.342040468050442 0
155 1 9 28.015783123512076 18.326597394651778 0
156 1 9 34.86997232821985 18.32688547196536 0
157 1 9 41.747433750857844 18.16804978300772 0
158 1 12 48.83542913832575 18.275852174331447 0
159 1 8 55.63072058056389 18.325620147151472 0
160 1 3 62.37801380658965 18.31166864676236 0
161 1 9 69.58526241705667 18.392962547614182 0
162 1 3 76.3688358721709 18.12569736091334 0
163 1 13 83.28258268469231 18.008046703628825 0
164 1 13 90.06757219927718 18.333388434473548 0
165 1 3 97.0206621999519 18.002350570438153 0
166 1 9 104.02282495188201 18.247200828298162 0
167 1 3 110.89586065577025 18.002202437066376 0
168 1 8 117.89227687608158 18.334614924966978 0
169 1 12 124.90943059433012 18.362628127146493 0
170 1 9 131.88581004456563 18.044702295366296 0
171 1 9 138.7229610222251 18.04024674004569 0
172 1 9 145.7366483053423 18.025471388695415 0
173 1 12 152.562571664075 18.103285024193667 0
174 1 8 159.5274155209441 18.112881856869578 0
175 1 3 166.5003147263233 18.33016873834355 0
176 1 4 -3.0936882079064096 20.213042956234688 0
177 1 12 3.5771341866395394 20.184963165748623 0
178 1 8 10.773529925652435 20.247308913915465 0
179 1 3 17.438461870892926 20.181074339346157 0
180 1 12 24.446695742750496 20.39624024021054 0
181 1 12 31.51964282669401 20.31410371292533 0
182 1 12 38.17756137191759 20.287517526782313 0
183 1 12 45.25318059070962 20.095456844495356 0
184 1 3 52.23314270772797 20.081262789253742 0
185 1 8 58.968001462414435 20.357605019427876 0
186 1 12 66.01124580840052 20.01269472510558 0
187 1 12 73.07380493296486 20.32975972444175 0
188 1 13 79.92043779547983 20.361487719722074 0
189 1 14 86.70938758290886 20.027044518284434 0
190 1 13 93.84628075569934 20.07921377120347 0
191 1 12 100.68777461036304 20.03610348612046 0
192 1 12 107.45722694960635 20.151447614165853 0
193 1 8 114.67124113089966 20.131842053288587 0
194 1 3 121.4787206423576 20.379709231209713 0
195 1 12 128.46512444572122 20.19871046391516 0
196 1 12 135.41536633323798 20.097045735632488 0
197 1 12 142.16802513650305 20.092242243769796 0
198 1 12 149.18138712389197 20.39432510401508 0
199 1 3 156.07405064347338 20.36296185191729 0
200 1 8 163.01818701840094 20.082717279463058 0
201 1 15 -3.105687269423906 24.254391602509624 0
202 1 9 3.5122609211177394 24.128366769508382 0
203 1 3 10.452428360711451 24.361435182313507 0
204 1 8 17.474659614851504 24.3387218373707 0
205 1 3 24.62516319463127 24.207289618905847 0
206 1 3 31.56895300472491 24.350026807943685 0
207 1 3 38.41283175707064 24.050582612381103 0
208 1 3 45.21176722810598 24.044982510770467 0
209 1 8 52.19991703701249 24.385659654173573 0
210 1 3 59.285349090722434 24.15255443930306 0
211 1 9 66.1768532029111 24.062611853847542 0
212 1 3 73.12609820330832 24.177108248039254 0
213 1 10 79.91833513773186 24.369646133033598 0
214 1 11 86.90897421591863 24.1634624652603 0
215 1 10 93.81035017157535 24.372301314386387 0
216 1 3 100.59016460571804 24.263741276162396 0
217 1 9 107.64974273114613 24.243839151408856 0
218 1 3 114.63371545291048 24.114607082700854 0
219 1 8 121.45906645162795 24.001142712936904 0
220 1 3 128.5232766220417 24.376008364068404 0
221 1 3 135.24099088061166 24.275493088471507 0
222 1 3 142.41204334197278 24.225484990266047 0
223 1 3 149.08042668923088 24.290266322474164 0
224 1 8 155.96306691126415 24.169439001758615 0
225 1 3 162.89941593211896 24.179797742261265 0
226 1 12 0.15108272259750272 26.207615212999556 0
227 1 12 7.253660457350337 26.201806765338812 0
228 1 8 13.939656510485765 26.00455074390376 0
229 1 16 21.09893290568119 26.254747209665506 0
230 1 16 27.876743253238608 26.006942329284655 0
231 1 16 34.692611075724926 26.08186024010224 0
232 1 16 41.705033875945844 26.16044474366094 0
233 1 16 48.73989256295687 26.151878034484763 0
234 1 8 55.58926647817893 26.177926957026294 0
235 1 12 62.52017185874162 26.278993293771745 0
236 1 12 69.6818034489357 26.39699770035601 0
237 1 13 76.49996065068734 26.07962208754904 0
238 1 11 83.45277328176766 26.010975128256277 0
239 1 11 90.41212733434196 26.039016801848703 0
240 1 13 97.31090987975915 26.241162491922918 0
241 1 12 104.29952060654064 26.205706943598862 0
242 1 12 111.24632554641855 26.088460949266448 0
243 1 8 118.09213456641672 26.21748307646926 0
244 1 16 124.92169718310438 26.163599059979322 0
245 1 16 132.02321774565144 26.35854295595663 0
246 1 16 138.6401825542056 26.17125493639695 0
247 1 16 145.66495546944537 26.124463271228358 0
248 1 16 152.45052230682631 26.205424275436407 0
249 1 8 159.3597689360367 26.331101104164347 0
250 1 12 166.3401917236646 26.110656062492087 0
251 1 12 0.16105336856791452 30.144262291743804 0
252 1 12 6.998140986156446 30.277911977645992 0
253 1 8 14.173129201225358 30.083436275310763 0
254 1 16 20.965989577296302 30.08228350110721 0
255 1 16 28.012377691052283 30.29343759000384 0
256 1 16 34.84516557294532 30.201166917075234 0
257 1 16 41.706338341445864 30.340955920417397 0
258 1 16 48.630521626995815 30.12251342369478 0
259 1 8 55.451918550337965 30.172551208275742 0
260 1 12 62.463013877173815 30.105352769106062 0
261 1 12 69.67735221495509 30.36094827514454 0
262 1 13 76.54179311718846 30.36462181921505 0
263 1 11 83.44364205636407 30.10461920663941 0
264 1 11 90.24237813263238 30.16818454910162 0
265 1 13 97.06453858750373 30.261995798555315 0
266 1 12 104.10987250939705 30.371578997524175 0
267 1 12 110.95317148917557 30.208834337855173 0
268 1 8 118.12976736180019 30.022725294241845 0
269 1 16 124.99936723066348 30.14356123996267 0
270 1 16 131.65631842865383 30.069356036658704 0
271 1 16 138.90167934857232 30.279381156795175 0
272 1 16 145.5485932370632 30.38195304738162 0
273 1 16 152.70096595655158 30.096879755908997 0
274 1 8 159.73362162220184 30.06219176816591 0
275 1 12 166.57873783308244 30.34934340169803 0
276 1 15 -3.4410694615666655 32.14562005597971 0
277 1 9 3.55293060484917 32.10334279433998 0
278 1 3 10.616534163671293 32.09059171477664 0
279 1 8 17.539791559252752 32.13604765174247 0
280 1 3 24.546546087622886 32.18149236299946 0
281 1 3 31.517837182526993 32.220699575042346 0
282 1 3 38.451365634286596 32.07017127168204 0
283 1 3 45.384600959111985 32.14041616916222 0
284 1 8 52.17087147725912 32.361837017957015 0
285 1 3 59.21656696000943 32.121411515808944 0
286 1 9 66.15805778035961 32.31067468440749 0
287 1 3 72.9164376062243 32.0438941870125 0
288 1 10 79.8698731055827 32.33111488674968 0
289 1 11 86.72805474234146 32.13395307666504 0
290 1 10 93.82366996445181 32.11225298763743 0
291 1 3 100.64733896576337 32.122480652323055 0
292 1 9 107.68219029722104 32.18126004322249 0
293 1 3 114.38865093409956 32.08587088641556 0
294 1 8 121.44723679439609 32.327910448832135 0
295 1 3 128.55496017542782 32.300991215668965 0
296 1 3 135.41433048173536 32.26601342943495 0
297 1 3 142.37407704365208 32.260815550977654 0
298 1 3 149.22946606353716 32.20484701752573 0
299 1 8 156.0204615819975 32.38967568761139 0
300 1 3 162.9395542147052 32.213050846022746 0
301 1 4 -3.3244117725638365 36.2692587416174 0
302 1 12 3.47243833826649 36.03564953824949 0
303 1 8 10.493038306895283 36.267094179448584 0
304 1 3 17.447859442526415 36.23127839615031 0
305 1 12 24.410041430994855 36.29550880893255 0
306 1 12 31.510846767709133 36.28599537149167 0
307 1 12 38.49402187309992 36.27133041617679 0
308 1 12 45.09061251308427 36.28376461440352 0
309 1 3 52.260259846985555 36.127733298711654 0
310 1 8 59.035301019194556 36.05821417653794 0
311 1 12 65.98055457528702 36.26041258030051 0
312 1 12 73.07232722922605 36.29958004141825 0
313 1 13 80.04099596048981 36.075198884298935 0
314 1 14 86.7360168930135 36.013059206281234 0
315 1 13 93.8940183434553 36.103432681948654 0
316 1 12 100.7605609458919 36.017034753673414 0
317 1 12 107.78094074168122 36.303267264416654 0
318 1 8 114.62196453172373 36.12403193829441 0
319 1 3 121.51147093732195 36.1400547651036 0
320 1 12 128.29363173147968 36.05674034760964 0
321 1 12 135.37979953930827 36.37281720461591 0
322 1 12 142.40036709650462 36.235271115433335 0
323 1 12 148.96743863349985 36.25138408501163 0
324 1 3 156.2712568755673 36.377534607442115 0
325 1 8 163.1020330589668 36.206166500797885 0
326 1 9 0.15164318031691534 38.221821343985425 0
327 1 3 7.0668507973157215 38.29203652386362 0
328 1 8 14.108490361550041 38.148001344793826 0
329 1 12 21.165492967365683 38.229179506707084 0
330 1 9 28.010995450478013 38.07720016616712 0
331 1 9 35.01466571898458 38.30952512390515 0
332 1 9 41.80299801218725 38.28615666653387 0
333 1 12 48.604547018349884 38.1453983923394 0
334 1 8 55.546457618505734 38.32185572223701 0
335 1 3 62.48898946186867 38.26181980076169 0
336 1 9 69.65567122324065 38.162493576144506 0
337 1 3 76.22507150142171 38.14024649946857 0
338 1 13 83.14743150205315 38.12223336804674 0
339 1 13 90.35771537208326 38.120213833130315 0
340 1 3 97.16095163092908 38.14544916685885 0
341 1 9 104.07362194366573 38.16703715764634 0
342 1 3 110.89687908700006 38.214778149799045 0
343 1 8 117.92542693011492 38.29798355558191 0
344 1 12 124.7393815893656 38.11943345797368 0
345 1 9 131.73298735606676 38.27355497296178 0
346 1 9 138.8797293798571 38.152035709815245 0
347 1 9 145.685215178387 38.18907500120002 0
348 1 12 152.4212982768583 38.13439692696928 0
349 1 8 159.60888008731362 38.16363792501554 0
350 1 3 166.3627165084197 38.35622248296534 0
351 1 12 0.2650198620586771 42.22936574941948 0
352 1 8 6.945836888440396 42.25319881411611 0
353 1 3 14.088605944898342 42.20938095436073 0
354 1 9 20.790078854302376 42.17161085186309 0
355 1 12 27.909332136046473 42.17325011528842 0
356 1 12 34.758967064992454 42.293926483209944 0
357 1 12 41.92407035067221 42.223254817255096 0
358 1 9 48.60479551191601 42.048967158290935 0
359 1 3 55.57657103177016 42.088593410392754 0
360 1 8 62.39593234776757 42.13918379269938 0
361 1 12 69.52316314879178 42.148063440261744 0
362 1 12 76.3668826483252 42.15253808298063 0
363 1 3 83.51344372254846 42.0484606826096 0
364 1 3 90.40407511903952 42.00658808084363 0
365 1 12 97.38298152012904 42.30652734968296 0
366 1 12 104.18545393454812 42.24496754715692 0
367 1 8 111.25035407032615 42.008981976235255 0
368 1 3 117.94078449204918 42.39539014693955 0
369 1 9 124.81037988091263 42.04463412931138 0
370 1 12 131.89012791666755 42.275192096050525 0
371 1 12 138.73116946925364 42.299320591335906 0
372 1 12 145.65496799593964 42.18164131140795 0
373 1 9 152.50787527546544 42.31652577999203 0
374 1 3 159.73064280471812 42.2520267075944 0
375 1 8 166.28947558465387 42.26783583401618 0
376 1 4 -3.4050731025426995 44.341532672025934 0
377 1 3 3.7601550453049697 44.0342657771086 0
378 1 8 10.717339691616477 44.399879696912194 0
379 1 12 17.61210526993146 44.27606711296299 0
380 1 12 24.54270512806047 44.1512349336614 0
381 1 3 31.29332893465085 44.29710568089183 0
382 1 3 38.21761033447633 44.16796795596255 0
383 1 12 45.148104725139795 44.38454125777133 0
384 1 12 52.03094957107403 44.24592192720914 0
385 1 8 59.027658149412105 44.39226034643672 0
386 1 3 65.8456407619123 44.22900630109179 0
387 1 9 72.88684691956993 44.3381767323321 0
388 1 12 79.81445839220515 44.26119966024674 0
389 1 12 86.65594812126817 44.232862553694986 0
390 1 12 93.68562336993516 44.25304242972635 0
391 1 9 100.77861202345333 44.38976841677462 0
392 1 3 107.63002719102208 44.18473587968865 0
393 1 8 114.51346174565458 44.21521433650185 0
394 1 12 121.36492197523826 44.01903289772599 0
395 1 12 128.1836082842126 44.21619771796671 0
396 1 3 135.37378562158415 44.024843618239274 0
397 1 3 142.1182095827922 44.027917519320845 0
398 1 12 149.22099806349135 44.10290467791295 0
399 1 12 156.08023231778097 44.12957639632454 0
400 1 8 163.1750810990952 44.166918838251036 0
401 1 3 -3.104182242827986 48.17344387060997 0
402 1 8 3.5381709588353276 48.205319789963944 0
403 1 3 10.634792514134052 48.36329155959466 0
404 1 9 17.513750218626942 48.2609984286752 0
405 1 3 24.291740049445302 48.181184277812285 0
406 1 13 31.339922866042443 48.239131804182776 0
407 1 13 38.17601926317243 48.376480542272034 0
408 1 3 45.35920091186518 48.17452690732098 0
409 1 9 52.29770420400697 48.180952029640295 0
410 1 3 59.127176607391554 48.184275700727135 0
411 1 8 65.95927604335355 48.241476415151865 0
412 1 12 72.89740417932795 48.34943311074081 0
413 1 9 79.90888877259891 48.1204716629094 0
414 1 9 86.62030684457815 48.06329926136076 0
415 1 9 93.58068128281826 48.32839776134516 0
416 1 12 100.82001005515968 48.3381153107995 0
417 1 8 107.39418224598766 48.06951466754615 0
418 1 3 114.69194873729538 48.263265753488085 0
419 1 9 121.2937702512147 48.15172398600059 0
420 1 3 128.43999906049257 48.39119149466059 0
421 1 13 135.14036289971708 48.21884570239412 0
422 1 13 142.24553279431825 48.3088658451376 0
423 1 3 149.05621373102187 48.164319982420935 0
424 1 9 156.00367470814757 48.18042028902053 0
425 1 3 163.07609677448096 48.32841059135698 0
426 1 3 0.030248520910165902 50.21726677937538 0
427 1 8 7.011062373816268 50.19205733933226 0
428 1 12 14.245412611338184 50.32487812106896 0
429 1 12 20.97991180702106 50.07177668032259 0
430 1 13 27.910049515104596 50.33240669296135 0
431 1 14 34.794809878065855 50.39918663588289 0
432 1 13 41.687318291265186 50.37767132911554 0
433 1 12 48.81908968749254 50.20493272507168 0
434 1 12 55.479188045131 50.083867800026404 0
435 1 8 62.54674913250735 50.1972891975132 0
436 1 3 69.608056924296 50.12913237818227 0
437 1 12 76.4779781560399 50.154729417148374 0
438 1 12 83.29238383393749 50.13932401492704 0
439 1 12 90.32976389349992 50.21739634127251 0
440 1 12 97.2712806255239 50.38922285431116 0
441 1 3 104.10632295367103 50.10523152276504 0
442 1 8 110.93661400666672 50.36559125334641 0
443 1 12 118.05500304662638 50.33935076707395 0
444 1 12 124.87639028931036 50.14727308034084 0
445 1 13 131.6443565261505 50.3055643103014 0
446 1 14 138.76057325464643 50.31430899337618 0
447 1 13 145.55252939281993 50.36995923611652 0
448 1 12 152.50008640436596 50.17243900450446 0
449 1 12 159.6812340411287 50.01950631868782 0
450 1 8 166.59595786452164 50.17442887297662 0
451 1 8 0.019781099646179492 54.28857698107305 0
452 1 3 6.969912287845426 54.09266193982786 0
453 1 9 14.125598208400833 54.08355656775904 0
454 1 3 21.105611495650642 54.05337326888729 0
455 1 10 27.925623347076794 54.20643264253194 0
456 1 11 34.696366081423925 54.12728474026413 0
457 1 10 41.90591660877297 54.05402483976052 0
458 1 3 48.55143011545402 54.14768158663482 0
459 1 9 55.75643392830304 54.25369029586508 0
460 1 3 62.67705628145121 54.33133661619655 0
461 1 8 69.40461865207656 54.37739105199383 0
462 1 3 76.21778959687482 54.214152447759176 0
463 1 3 83.49209533028227 54.264912790660226 0
464 1 3 90.26066516157256 54.069387856815126 0
465 1 3 97.23523588847574 54.09584854102925 0
466 1 8 103.95243747296205 54.022083509670566 0
467 1 3 111.19284757207032 54.16938526042683 0
468 1 9 117.84290150596671 54.19615827358081 0
469 1 3 124.97445856933108 54.0162380849805 0
470 1 10 131.9029612567811 54.158757993613136 0
471 1 11 138.88514074207365 54.16606405191679 0
472 1 10 145.6997658442809 54.332689645905816 0
473 1 3 152.78906977168606 54.25121661450904 0
474 1 9 159.38833085023873 54.335240280481 0
475 1 3 166.55546687207908 54.364504409731865 0
476 1 2 -3.257296965472159 56.202204516477636 0
477 1 8 3.6849875782157135 56.2980852746922 0
478 1 12 10.743825829522308 56.35291924175172 0
479 1 12 17.682537792245522 56.02731836894279 0
480 1 13 24.30351772774239 56.39809404626254 0
481 1 11 31.34305475767774 56.00686522184259 0
482 1 11 38.11507519677584 56.28403075517676 0
483 1 13 45.336997620903986 56.05224294651983 0
484 1 12 52.25289462804189 56.29868207551493 0
485 1 12 59.102147105889955 56.35782514380981 0
486 1 8 65.82117616592477 56.130745762553595 0
487 1 16 72.89877192936363 56.130623648366445 0
488 1 16 79.94720100317677 56.02296236435264 0
489 1 16 86.64201585099987 56.13529010576304 0
490 1 16 93.59131625844583 56.092987045586796 0
491 1 16 100.60646410526284 56.31852590005014 0
492 1 8 107.72948605999477 56.109730167171676 0
493 1 12 114.6748655798091 56.37236135445827 0
494 1 12 121.58133549077681 56.14060287430712 0
495 1 13 128.57008895173715 56.252471538807725 0
496 1 11 135.37662230814664 56.29716434892426 0
497 1 11 142.21770842204614 56.008868988658634 0
498 1 13 149.2183637740476 56.302757257959406 0
499 1 12 156.23780078197925 56.38080940316851 0
500 1 12 163.02786687711136 56.34318921125283 0
501 1 2 -3.382010066649995 60.0822800027936 0
502 1 8 3.54120530856012 60.35632641328036 0
503 1 12 10.667722168808858 60.21709282209252 0
504 1 12 17.62121357519529 60.396961188404866 0
505 1 13 24.271684961927438 60.11988630927028 0
506 1 11 31.203991672478185 60.02292996270137 0
507 1 11 38.24013988629439 60.098089500597894 0
508 1 13 45.201715122308414 60.13606010668371 0
509 1 12 52.01161596634514 60.09382797540641 0
510 1 12 58.947596665946264 60.14267015659289 0
511 1 8 66.21374573775648 60.27363855313884 0
512 1 16 72.8122573807846 60.36839791167872 0
513 1 16 79.96710707341799 60.15532354210528 0
514 1 16 86.63345641590493 60.15301738628847 0
515 1 16 93.89985484248093 60.341778661811205 0
516 1 16 100.62359822016168 60.15124939857268 0
517 1 8 107.61135076811202 60.013180958351576 0
518 1 12 114.44009795546697 60.04945789384999 0
519 1 12 121.46222800804917 60.14111084441936 0
520 1 13 128.31475300660824 60.379024330278035 0
521 1 11 135.3428135673727 60.141671704082896 0
522 1 11 142.2938403130071 60.15523598003011 0
523 1 13 149.1268922577949 60.23292841759073 0
524 1 12 156.2216505414674 60.103633338555454 0
525 1 12 162.8420897867929 60.39121873668255 0
526 1 8 0.10994091811858504 62.225046461400254 0
527 1 3 7.148523620226791 62.327805938220514 0
528 1 9 14.044321791861323 62.0579702703589 0
529 1 3 20.86716232492307 62.38796921796473 0
530 1 10 27.73130777782131 62.000548271652214 0
531 1 11 35.02418952539086 62.05189825508025 0
532 1 10 41.86397073174686 62.385827585259264 0
533 1 3 48.5713694402872 62.29876367586926 0
534 1 9 55.6467755113131 62.35770518622019 0
535 1 3 62.498486464841555 62.11854741056649 0
536 1 8 69.51705327461981 62.29293660391576 0
537 1 3 76.49036106857905 62.397889013974165 0
538 1 3 83.28211619954489 62.21285165777775 0
539 1 3 90.33338697724919 62.24046555042253 0
540 1 3 97.08008550336481 62.26838871972481 0
541 1 8 104.20553658013651 62.396514259414516 0
542 1 3 111.0695931584018 62.26707059155114 0
543 1 9 118.02673567666717 62.31153445075334 0
544 1 3 124.72817219542861 62.23858017982054 0
545 1 10 131.97684095808714 62.289239760881095 0
546 1 11 138.74596448027702 62.02651442784577 0
547 1 10 145.61708479189164 62.06152097005134 0
548 1 3 152.76368040206302 62.17474109541831 0
549 1 9 159.389655222457 62.239553559198335 0
550 1 3 166.59776467542997 62.2309123137565 0
551 1 3 0.09706524086845825 66.06858063507202 0
552 1 8 7.007066140576033 66.38808766303535 0
553 1 12 14.104103056541614 66.12913632202785 0
554 1 12 20.904650464046806 66.28707717836188 0
555 1 13 27.909910313134393 66.23685998140786 0
556 1 14 34.784629034440144 66.17786679983443 0
557 1 13 41.8015090684301 66.02201089044155 0
558 1 12 48.67118740236904 66.13101588671 0
559 1 12 55.439042407551526 66.3012452478655 0
560 1 8 62.39235571500659 66.06790682474575 0
561 1 3 69.55418133146664 66.13246775865977 0
562 1 12 76.49794533754661 66.21973543890745 0
563 1 12 83.3503570892559 66.15826088942909 0
564 1 12 90.36279816827803 66.0094953691218 0
565 1 12 97.27908718030687 66.13015724206741 0
566 1 3 104.09199262542059 66.16841426891344 0
567 1 8 110.86666097608126 66.2667109366723 0