
14309 atoms
14896 bonds
16659 angles
7 atom types
2 bond types
4 angle types

-5.680607966083864 171.52447279080386 xlo xhi
-2.0 148.0 ylo yhi
-4 4 zlo zhi


Masses

1 0.0002355335786568537
2 0.0005138914443422263
3 0.0004710671573137074
4 0.00074942502299908
5 0.0002783578656853726
6 0.0004710671573137074
7 0.0005567157313707452

Pair Coeffs

1 0.40509979849834776 0.44544935907016964 0.5
2 0.40509979849834776 0.44544935907016964 0.5
3 0.40509979849834776 0.44544935907016964 0.5
4 0.40509979849834776 0.44544935907016964 0.5
5 0.40509979849834776 0.44544935907016964 0.5
6 0.40509979849834776 0.44544935907016964 0.5
7 0.40509979849834776 0.44544935907016964 0.5

Bond Coeffs

1 94.21343146274148 0.5
2 111.34314627414903 0.5

Angle Coeffs

1 6.968787473998096 180
2 11.50294972229438 180
3 8.679379864157495 120
4 6.968787473998096 120

Atoms

1 1 1 -3.3054903767532267 0.09204015779807816 0
2 1 2 3.512219195291954 0.08163101993364902 0
3 1 2 10.406140413321582 0.2569976502691242 0
4 1 3 17.341240933741137 0.17270501630986013 0
5 1 2 24.34039804240751 0.09974846778134477 0
6 1 2 31.47180167074522 0.26450602174886906 0
7 1 3 38.47534152655916 0.3840680472113756 0
8 1 2 45.074839194384175 0.10023236799934683 0
9 1 2 52.224806631310834 0.02332245287729742 0
10 1 3 59.28495824280843 0.3719304386405553 0
11 1 2 66.07741597712445 0.2637319652061876 0
12 1 2 73.1357790622269 0.3500850750364466 0
13 1 3 79.73433970168017 0.2266424163891046 0
14 1 2 86.73458024510113 0.31197675299804084 0
15 1 2 93.68314773770469 0.24730469841935504 0
16 1 3 100.45948690968817 0.022668157402504854 0
17 1 2 107.67196466052292 0.06031476707060479 0
18 1 2 114.37396651827989 0.20198297873192197 0
19 1 3 121.44884348826719 0.26916070512792084 0
20 1 2 128.2423544741844 0.31218236176294045 0
21 1 2 135.30956865981338 0.10348731995755359 0
22 1 3 142.13661924530732 0.3013175967033461 0
23 1 2 149.06369376159032 0.12410109653233184 0
24 1 2 156.04960665008994 0.26167209724549817 0
25 1 3 163.09767839453338 0.2405837828970031 0
26 1 4 0.31961942887060746 2.1087342766556803 0
27 1 4 7.096064363298749 2.3991052757626097 0
28 1 4 14.127675581108349 2.189622496294616 0
29 1 4 21.032029406036475 2.0106535952823803 0
30 1 4 27.85643922132734 2.3493989649757667 0
31 1 4 34.96253936235357 2.240009787008513 0
32 1 4 41.65619739971763 2.3950457387181876 0
33 1 4 48.84229811934929 2.398390204894307 0
34 1 4 55.672348706841454 2.3066995829392436 0
35 1 4 62.48501061925327 2.304559621374409 0
36 1 4 69.48649562061281 2.114354820935162 0
37 1 4 76.30458025188807 2.235881541354551 0
38 1 4 83.34771180867966 2.0551558375266987 0
39 1 4 90.42282326270632 2.3365731608605222 0
40 1 4 97.33147749226748 2.0039615493264957 0
41 1 4 104.17823814107636 2.207571853094753 0
42 1 4 110.89588929971052 2.1546276871604437 0
43 1 4 117.78997798081514 2.3008462237199176 0
44 1 4 124.89484034664558 2.1971371847642907 0
45 1 4 131.9341844858792 2.0667263869649366 0
46 1 4 138.64104965726594 2.337836303806979 0
47 1 4 145.69666776623356 2.1265160349486623 0
48 1 4 152.55682579751297 2.19226883399829 0
49 1 4 159.65142505513188 2.21864878014308 0
50 1 4 166.45692176977988 2.312314923395479 0
51 1 4 0.3678848501269467 6.191662577119257 0
52 1 4 7.26194495726819 6.183919167415405 0
53 1 4 14.001854199176918 6.333620660224939 0
54 1 4 20.96837018122367 6.037907272406796 0
55 1 4 28.066076275928364 6.0077755792529635 0
56 1 4 34.96299404275684 6.02557188851346 0
57 1 4 41.73455595306023 6.38584115710949 0
58 1 4 48.65970936255735 6.338267316774784 0
59 1 4 55.44035960476742 6.094420860247197 0
60 1 4 62.52138789053641 6.162087279557293 0
61 1 4 69.56528081355042 6.2297792064135695 0
62 1 4 76.43725641571687 6.343403782620307 0
63 1 4 83.43083180103845 6.315807575002799 0
64 1 4 90.3755464157252 6.102551566457922 0
65 1 4 97.26701470137208 6.078727466364636 0
66 1 4 103.9951223626332 6.114900178362356 0
67 1 4 110.90781196190807 6.176863431607943 0
68 1 4 118.08385839487795 6.129908141649404 0
69 1 4 124.91601198793953 6.033998642661753 0
70 1 4 132.004115179027 6.014080874573643 0
71 1 4 138.71189391754135 6.29010473731837 0
72 1 4 145.60761206653598 6.099203394417774 0
73 1 4 152.5385049746875 6.295258435009878 0
74 1 4 159.43929089564506 6.048505002677827 0
75 1 4 166.3576022613384 6.122215534267246 0
76 1 2 -3.141640456378041 8.063910501387342 0
77 1 4 3.520830648801741 8.350463378960013 0
78 1 4 10.627346178064126 8.281748456384378 0
79 1 4 17.397602027821453 8.332419974064262 0
80 1 4 24.359201048877313 8.182465467395708 0
81 1 4 31.239460162736137 8.020021391801262 0
82 1 4 38.28936035704019 8.305012274404278 0
83 1 4 45.07129965395759 8.003911699354585 0
84 1 4 52.316394938792406 8.274072029831208 0
85 1 4 59.09696339110808 8.226439404828934 0
86 1 4 66.06298885563396 8.11329207451161 0
87 1 4 72.87515943420513 8.12195753340744 0
88 1 4 79.90452939245435 8.337061193312135 0
89 1 4 86.83816698587376 8.185106727029288 0
90 1 4 93.76953918258602 8.223568938523414 0
91 1 4 100.71949820312182 8.153780079216979 0
92 1 4 107.61479213818666 8.126817408416015 0
93 1 4 114.68039021031068 8.344068753380892 0
94 1 4 121.54188210068975 8.349959609215116 0
95 1 4 128.28759106293882 8.027422654424097 0
96 1 4 135.39818401673244 8.214479510489893 0
97 1 4 142.29461407512295 8.39870342641763 0
98 1 4 149.28447166118687 8.257295773529533 0
99 1 4 156.23750589713907 8.005078747817384 0
100 1 4 163.04620950424544 8.036414622331732 0
101 1 2 -3.2814343616610704 12.313526477852468 0
102 1 4 3.52797715505533 12.242652218277769 0
103 1 4 10.460604636932647 12.273657278954492 0
104 1 4 17.544617225029995 12.398138106583431 0
105 1 4 24.375761530777385 12.089785049316383 0
106 1 4 31.358224084659202 12.39136791035755 0
107 1 4 38.29177010990317 12.32658379853635 0
108 1 4 45.23994425664054 12.08348157179847 0
109 1 4 52.062357736958575 12.26208515843104 0
110 1 4 59.26717936165714 12.350183458575312 0
111 1 4 66.10300258132 12.34755948839933 0
112 1 4 72.85115473935697 12.040804911828953 0
113 1 4 79.98440284997645 12.011313147789444 0
114 1 4 86.92309623168335 12.07549809642138 0
115 1 4 93.82429197336353 12.276978367470505 0
116 1 4 100.53934077848942 12.222705396645576 0
117 1 4 107.56352563998877 12.113975992748218 0
118 1 4 114.71150888010953 12.284091351481306 0
119 1 4 121.35509942414058 12.287854352090985 0
120 1 4 128.45341908977284 12.18750991801342 0
121 1 4 135.32701140845998 12.063073120132797 0
122 1 4 142.2247739546114 12.186692703080844 0
123 1 4 149.19687229768127 12.385511977090426 0
124 1 4 156.24304591259286 12.207623880373141 0
125 1 4 162.9801962837034 12.215724476770696 0
126 1 4 0.11015067060255612 14.09374338679698 0
127 1 4 7.099221110730477 14.161387861931386 0
128 1 4 13.87327344994106 14.232155512456718 0
129 1 4 21.038203414756154 14.030330274968723 0
130 1 4 27.88485311988807 14.345685547567765 0
131 1 4 34.866337876159456 14.222503274036926 0
132 1 4 41.91691459955724 14.288164512925233 0
133 1 4 48.64238030436202 14.03532342897096 0
134 1 4 55.75993709082912 14.074954119216239 0
135 1 4 62.61890539052662 14.398913293891727 0
136 1 4 69.60877489025025 14.389355635280468 0
137 1 4 76.28434223061701 14.197658975913157 0
138 1 4 83.19488014375 14.141597535962385 0
139 1 4 90.38189026206003 14.217438952228044 0
140 1 4 97.3384642147403 14.205969910143779 0
141 1 4 104.16999255018237 14.008086099092404 0
142 1 4 110.98569166942113 14.375197677077622 0
143 1 4 118.14947400510346 14.025739286112286 0
144 1 4 124.83000963181986 14.081012044072432 0
145 1 4 131.72547318981805 14.362723745198883 0
146 1 4 138.81137687416938 14.301463057798555 0
147 1 4 145.56690996773318 14.097215582576377 0
148 1 4 152.46050543230388 14.105903887889497 0
149 1 4 159.38696215710914 14.198347339476468 0
150 1 4 166.521475815744 14.098795047694933 0
151 1 4 0.302912159331998 18.30656696463093 0
152 1 4 7.042290335956227 18.335366323226033 0
153 1 4 13.975543189696246 18.27382124329702 0
154 1 4 20.91225271142598 18.341567718068237 0
155 1 4 28.102092784559197 18.113366010764974 0
156 1 4 34.907665696815236 18.28273979643693 0
157 1 4 41.65579412532315 18.277438718202504 0
158 1 4 48.81115141236835 18.353305262872556 0
159 1 4 55.79241108550169 18.064888725052988 0
160 1 4 62.533776997588745 18.39977598552025 0
161 1 4 69.52189563999562 18.111007399377968 0
162 1 4 76.21992679074543 18.190087429004585 0
163 1 4 83.4864027842495 18.17259234882291 0
164 1 4 90.22828896199493 18.169941794698556 0
165 1 4 97.11942887732914 18.199850242871353 0
166 1 4 104.27581974702363 18.102431520976666 0
167 1 4 111.14548003911415 18.328873425167266 0
168 1 4 117.78662915467461 18.131989561117646 0
169 1 4 124.759814243174 18.34874498624149 0
170 1 4 131.85129220833886 18.119597015193893 0
171 1 4 138.69758352105845 18.191028981999033 0
172 1 4 145.70408269737212 18.331249187512096 0
173 1 4 152.72722455907544 18.137789651181066 0
174 1 4 159.4696383169586 18.290749124342955 0
175 1 4 166.36385646475458 18.179552595898983 0
176 1 2 -3.227879282180349 20.195301718800337 0
177 1 4 3.6445948750890493 20.15953761135895 0
178 1 4 10.558350353877836 20.199857710117545 0
179 1 4 17.475142009795846 20.18584835458554 0
180 1 4 24.317603082490752 20.050381647137375 0
181 1 4 31.326581640118615 20.119600924566086 0
182 1 4 38.301585416161096 20.382508423071307 0
183 1 4 45.21914556983846 20.39777322769428 0
184 1 4 52.02785886461371 20.182863155980797 0
185 1 4 59.19289443739496 20.07386587952649 0
186 1 4 66.12035230996848 20.065713115994825 0
187 1 4 72.95869841656757 20.158887656902955 0
188 1 4 79.75400234565916 20.032484983053696 0
189 1 4 86.72577124888704 20.24627457592305 0
190 1 4 93.56401019335654 20.05399398456905 0
191 1 4 100.56410959670183 20.295083896110256 0
192 1 4 107.6688455350047 20.34795113932616 0
193 1 4 114.41064878780826 20.390450365500705 0
194 1 4 121.48336033423477 20.10197934134116 0
195 1 4 128.2968930742596 20.00358674431073 0
196 1 4 135.2248529001359 20.09892349089516 0
197 1 4 142.27804791208686 20.344232665675015 0
198 1 4 148.97636438796818 20.12185037871015 0
199 1 4 155.92235040048453 20.326155521734837 0
200 1 4 163.1735976897705 20.31762459007329 0
201 1 2 -3.353808228118446 24.089188429696257 0
202 1 4 3.790532376105536 24.323007158077314 0
203 1 4 10.458473674129793 24.208765054144713 0
204 1 4 17.445243106483268 24.389918894498237 0
205 1 4 24.28317015582905 24.174852776982714 0
206 1 4 31.384797664712092 24.109067207443456 0
207 1 4 38.34621202667717 24.06240564718637 0
208 1 4 45.12869343872849 24.00955679998811 0
209 1 4 52.10520353915353 24.33243346135574 0
210 1 4 59.11526481743815 24.08464144711148 0
211 1 4 66.14006878022752 24.067908529372694 0
212 1 4 73.0369481297734 24.100044476092076 0
213 1 4 79.711397117661 24.318585492566132 0
214 1 4 86.75165298512633 24.187348576072957 0
215 1 4 93.80666296346023 24.181280197448753 0
216 1 4 100.79223971399712 24.24768572649086 0
217 1 4 107.74916285230685 24.114648239207288 0
218 1 4 114.31826515552292 24.290912628526875 0
219 1 4 121.43210773467705 24.38718965573509 0
220 1 4 128.481363627607 24.086273415179583 0
221 1 4 135.26247452521682 24.289188927138387 0
222 1 4 142.4047805486376 24.281816765189355 0
223 1 4 149.04985439857714 24.000294367591742 0
224 1 4 155.9667847625718 24.393191248310362 0
225 1 4 163.0623312512615 24.02089306752693 0
226 1 4 0.031604557050303184 26.116023001074407 0
227 1 4 6.9775027044628715 26.177355511853946 0
228 1 4 14.022537418945548 26.08898727434925 0
229 1 4 20.954922396447675 26.190840513692162 0
230 1 4 27.948934060734608 26.107932270314127 0
231 1 4 34.98760509380717 26.129207654602506 0
232 1 4 41.93720615144041 26.135656602956768 0
233 1 4 48.73978980396456 26.018461825681257 0
234 1 4 55.72000977021847 26.187100870527953 0
235 1 4 62.35519042251408 26.25759790076396 0
236 1 4 69.66327681804432 26.112512383040364 0
237 1 4 76.38556733394893 26.231505592096703 0
238 1 4 83.38571558371035 26.15930654743444 0
239 1 4 90.17237983004996 26.108957824606538 0
240 1 4 97.34417663831438 26.15952930495382 0
241 1 4 104.25883525561356 26.211422555878126 0
242 1 4 110.99551951895084 26.285439213467424 0
243 1 4 117.91624385898716 26.092022377764337 0
244 1 4 124.73697320121882 26.1754239144775 0
245 1 4 131.64511243339214 26.074761925107268 0
246 1 4 138.89015142149978 26.02738340283336 0
247 1 4 145.5727315496946 26.249595067728983 0
248 1 4 152.64155697008354 26.162868615591584 0
249 1 4 159.71907518990173 26.25844303584467 0
250 1 4 166.4771757746685 26.18484262251677 0
251 1 4 0.029884737564393273 30.39813962173753 0
252 1 4 7.240103029516538 30.141622511468437 0
253 1 4 13.8964274341558 30.36415367760285 0
254 1 4 21.109159855362353 30.21333464688302 0
255 1 4 27.858849199642297 30.341375892948406 0
256 1 4 34.87783740885917 30.363123367668667 0
257 1 4 41.70166711795625 30.050508226181893 0
258 1 4 48.799879234289406 30.039697651080438 0
259 1 4 55.59589151521481 30.174324438865888 0
260 1 4 62.624694444693596 30.303903198195528 0
261 1 4 69.63797962536603 30.28801013795411 0
262 1 4 76.48613245679228 30.258123812529085 0
263 1 4 83.43307387299495 30.113806139595443 0
264 1 4 90.25081090673253 30.22909263729362 0
265 1 4 96.9994109718782 30.067325023314336 0
266 1 4 104.19886146131034 30.396587422475225 0
267 1 4 110.8672490768456 30.310080402018976 0
268 1 4 117.86280388351291 30.079185897956727 0
269 1 4 124.76633741913031 30.381123204258103 0
270 1 4 131.6537317765099 30.000189203207842 0
271 1 4 138.7646067648994 30.1303376468629 0
272 1 4 145.51864212928837 30.178763747724233 0
273 1 4 152.5825288564 30.15268272082604 0
274 1 4 159.4013877633248 30.09135395273376 0
275 1 4 166.3927901581771 30.111132897695988 0
276 1 2 -3.3196484842415406 32.25345891223905 0
277 1 4 3.5053391673313556 32.3526995919312 0
278 1 4 10.522857005535444 32.34015402105746 0
279 1 4 17.699461997180602 32.25820286738718 0
280 1 4 24.428482208191266 32.06286176245531 0
281 1 4 31.504919827619585 32.27677411741727 0
282 1 4 38.43301895898369 32.033822624108375 0
283 1 4 45.22216541486399 32.0273696295521 0
284 1 4 51.96662103760653 32.167227641203716 0
285 1 4 59.20358919614433 32.16368402040373 0
286 1 4 66.06766457484969 32.25179277758651 0
287 1 4 72.78369268628316 32.04024166018961 0
288 1 4 80.07308360951733 32.29520866918309 0
289 1 4 86.9661546096018 32.10454722978435 0
290 1 4 93.84075221155271 32.30663225118845 0
291 1 4 100.59620877334704 32.35227393657281 0
292 1 4 107.75493327994039 32.21881593085368 0
293 1 4 114.5087684078786 32.35344102076549 0
294 1 4 121.49630769791075 32.27288942941791 0
295 1 4 128.1854978702577 32.06090826280172 0
296 1 4 135.23800579509845 32.30794824073084 0
297 1 4 142.1257745373001 32.33892914422546 0
298 1 4 149.34172946758002 32.21917078947297 0
299 1 4 156.00488201050769 32.10538212122029 0
300 1 4 162.93857020913956 32.178053024485436 0
301 1 2 -3.295277715232237 36.36848568310665 0
302 1 4 3.7106176467379575 36.0061252659649 0
303 1 4 10.450180329863372 36.08084957722918 0
304 1 4 17.49332227491855 36.03688670764793 0
305 1 4 24.53419265299545 36.12120655023367 0
306 1 4 31.461156848573946 36.25844086108185 0
307 1 4 38.322073725930856 36.02273907027027 0
308 1 4 45.047137401911705 36.30468412881559 0
309 1 4 51.99255428927256 36.2381058026758 0
310 1 4 59.030347034738654 36.05793227779483 0
311 1 4 66.14587710588631 36.14204310924893 0
312 1 4 73.114534752635 36.266705433655936 0
313 1 4 79.84410830512164 36.30416984324982 0
314 1 4 86.60255109648193 36.1731308643773 0
315 1 4 93.7640753801105 36.34670461712821 0
316 1 4 100.64258278785725 36.34609833166803 0
317 1 4 107.60726570037527 36.26898996935361 0
318 1 4 114.33671069420909 36.22379783960263 0
319 1 4 121.34622556817723 36.21183750567252 0
320 1 4 128.4994923605797 36.088290483707425 0
321 1 4 135.1259980084505 36.34774644890463 0
322 1 4 142.22458825919082 36.21671151769788 0
323 1 4 149.33873602056374 36.307149490120906 0
324 1 4 156.17455998746837 36.11186655157452 0
325 1 4 162.9228154874768 36.13713695319999 0
326 1 4 0.26083424241581404 38.281302358555436 0
327 1 4 7.071400068992992 38.386241974577956 0
328 1 4 14.022570595357331 38.230134055766655 0
329 1 4 20.967620899253568 38.26142342594507 0
330 1 4 27.855129037837287 38.18656887546213 0
331 1 4 34.745590819029616 38.05734363109294 0
332 1 4 41.844897764904886 38.017979868042126 0
333 1 4 48.66787046606098 38.0421929367535 0
334 1 4 55.772302463257844 38.26565129080509 0
335 1 4 62.55863796055579 38.3685533192612 0
336 1 4 69.6625789370457 38.064526642653846 0
337 1 4 76.25320355313961 38.06748696432237 0
338 1 4 83.454772020825 38.39357811991508 0
339 1 4 90.25175549465892 38.079301087787144 0
340 1 4 97.0588271507614 38.162925346117824 0
341 1 4 103.97400583522356 38.33370529188029 0
342 1 4 111.13305295073108 38.02371559890893 0
343 1 4 118.05985160442442 38.29870087452866 0
344 1 4 124.80930678211844 38.08396539362234 0
345 1 4 131.91440225657482 38.03973752637432 0
346 1 4 138.7135323233509 38.30667982885494 0
347 1 4 145.6065366166853 38.15524591689139 0
348 1 4 152.45607196872703 38.12766645859903 0
349 1 4 159.5706655974821 38.201195556875 0
350 1 4 166.47433820097163 38.21883847521582 0
351 1 4 0.036743929066215174 42.081422929744626 0
352 1 4 7.244497737540428 42.3750730076842 0
353 1 4 14.009957427297962 42.142366422632826 0
354 1 4 20.916362808798066 42.34173658998244 0
355 1 4 27.815714482503438 42.11899221587004 0
356 1 4 34.73233274014555 42.22481443488482 0
357 1 4 41.83199036302836 42.018624222135834 0
358 1 4 48.53577947745488 42.01504295159452 0
359 1 4 55.58638974615504 42.02405565544252 0
360 1 4 62.52333053365925 42.25900268727086 0
361 1 4 69.30402787491388 42.10117086144375 0
362 1 4 76.40918110027557 42.045792729993394 0
363 1 4 83.4203380289706 42.24275162232917 0
364 1 4 90.43859927677093 42.2181505682434 0
365 1 4 97.36588935294567 42.32749759495336 0
366 1 4 104.15653507527021 42.27650390761361 0
367 1 4 110.93642293350761 42.237541593277385 0
368 1 4 117.97615326812273 42.315688380505534 0
369 1 4 124.92473476366017 42.13239829869261 0
370 1 4 132.02555842039382 42.38726798832534 0
371 1 4 138.6196521212895 42.15947323637621 0
372 1 4 145.81282574055305 42.223869791323125 0
373 1 4 152.6768497088751 42.195339170533735 0
374 1 4 159.74408300183555 42.12618287465339 0
375 1 4 166.37832678389847 42.20336991068562 0
376 1 2 -3.170320457870416 44.114037227464046 0
377 1 4 3.8513592079045105 44.33363519080041 0
378 1 4 10.78709698398883 44.00551893276749 0
379 1 4 17.560466714292108 44.284831041211525 0
380 1 4 24.639285796162437 44.020154870979 0
381 1 4 31.418641540230226 44.204820274882785 0
382 1 4 38.453120869591736 44.17374041625033 0
383 1 4 45.20118598209093 44.30633408223825 0
384 1 4 52.10139899028773 44.33111218210607 0
385 1 4 59.080247973499134 44.268806663289496 0
386 1 4 66.09507661287174 44.244497906373205 0
387 1 4 72.7727180381252 44.01473357107743 0
388 1 4 79.97935962691734 44.075501002424424 0
389 1 4 86.90995709291664 44.252849408483556 0
390 1 4 93.65132966101524 44.229143679478994 0
391 1 4 100.59671343389893 44.379161416824815 0
392 1 4 107.39561672825182 44.12402026202422 0
393 1 4 114.48677184237086 44.02253335181171 0
394 1 4 121.44536542787978 44.39641670812231 0
395 1 4 128.36046400462243 44.19899944946944 0
396 1 4 135.42607903158472 44.06719404897823 0
397 1 4 142.2521551376829 44.155121726164744 0
398 1 4 149.35284375151775 44.09484899479701 0
399 1 4 156.0994504814473 44.368184950489976 0
400 1 4 163.03082653144784 44.32240868142565 0
401 1 2 -3.303059976654289 48.39724516502416 0
402 1 4 3.787265590503473 48.042618885582485 0
403 1 4 10.707870402347815 48.318906827297624 0
404 1 4 17.56486410086465 48.25746595689142 0
405 1 4 24.288756646493137 48.18822271357098 0
406 1 4 31.21028568281468 48.17364341998257 0
407 1 4 38.19731301653655 48.28729163051617 0
408 1 4 45.237559354205125 48.31765371369008 0
409 1 4 52.21173878059775 48.27702188294325 0
410 1 4 59.282017891244394 48.22413322923064 0
411 1 4 65.95511452564419 48.30003536092961 0
412 1 4 72.8956414813131 48.065727469865216 0
413 1 4 80.05209405593052 48.271512934296624 0
414 1 4 86.6341528712017 48.186532190805 0
415 1 4 93.7649494237015 48.284092452073594 0
416 1 4 100.85833895401524 48.266704272541965 0
417 1 4 107.6692118573412 48.22144762999967 0
418 1 4 114.58620098767254 48.37184047005819 0
419 1 4 121.59738568705751 48.37182544939527 0
420 1 4 128.39148549159648 48.231081393465 0
421 1 4 135.42416345854258 48.00362331476903 0
422 1 4 142.37152826883306 48.065434517736065 0
423 1 4 148.9970186399176 48.14878061246154 0
424 1 4 156.11601729646642 48.13118049174485 0
425 1 4 163.0664191156532 48.255819195502475 0
426 1 4 0.27088288386883 50.10172838104893 0
427 1 4 7.079068649157046 50.13361912333887 0
428 1 4 14.053834641035065 50.03900855453735 0
429 1 4 20.808010553135514 50.31059661220913 0
430 1 4 28.094372582714147 50.15034161238407 0
431 1 4 34.68349592124021 50.17701794551182 0
432 1 4 41.67099893115306 50.17687497144626 0
433 1 4 48.67413382080924 50.216822256704575 0
434 1 4 55.82251506465457 50.145935175977336 0
435 1 4 62.54508543495533 50.07713742215841 0
436 1 4 69.28966531196653 50.176058333260656 0
437 1 4 76.28370845225534 50.360631533484344 0
438 1 4 83.43710611656178 50.03175654477974 0
439 1 4 90.11838045463554 50.15023485775891 0
440 1 4 97.1062746795801 50.20329126549382 0
441 1 4 103.96238472172757 50.22184492845146 0
442 1 4 110.89542994877745 50.22148446436236 0
443 1 4 118.15862370553552 50.25643545967689 0
444 1 4 125.07173569381298 50.38284977818843 0
445 1 4 131.89637528054664 50.10039295037813 0
446 1 4 138.95221205981161 50.06242429247034 0
447 1 4 145.57254811296116 50.37838723780613 0
448 1 4 152.42073704932628 50.356768485194486 0
449 1 4 159.4542254440595 50.21152832048045 0
450 1 4 166.50275521244959 50.19346378156705 0
451 1 4 0.22350416400023448 54.33150341658697 0
452 1 4 7.170420543587427 54.065332645885995 0
453 1 4 13.999685017058537 54.12481362947595 0
454 1 4 20.925642500999736 54.36602147299913 0
455 1 4 28.052210941726887 54.31709308768119 0
456 1 4 34.93002216222251 54.08406080044499 0
457 1 4 41.64573420727188 54.069580359172626 0
458 1 4 48.883434778199025 54.34220707239529 0
459 1 4 55.794558712663125 54.018147569574126 0
460 1 4 62.364545639242216 54.315272084538364 0
461 1 4 69.38737705018117 54.12188454067786 0
462 1 4 76.46538069919957 54.07922923673549 0
463 1 4 83.27382809339124 54.388294338403036 0
464 1 4 90.11494754097272 54.1040180955162 0
465 1 4 97.23649092928065 54.39698423284089 0
466 1 4 104.23493518945946 54.28197046952085 0
467 1 4 110.99740159726429 54.04623973780227 0
468 1 4 118.12631887217057 54.11247169074023 0
469 1 4 124.73411405305893 54.25399492224528 0
470 1 4 131.8533698500446 54.15882067616596 0
471 1 4 138.91882957452054 54.014738875053006 0
472 1 4 145.72573819560145 54.00153208863483 0
473 1 4 152.60542099157755 54.31969478462193 0
474 1 4 159.401977628398 54.049283363097885 0
475 1 4 166.4772876690122 54.12615244968239 0
476 1 2 -3.1948360674328535 56.10432811586714 0
477 1 4 3.631644842482589 56.05379136935156 0
478 1 4 10.650656341219554 56.29623484217785 0
479 1 4 17.41724093420688 56.176116453693865 0
480 1 4 24.28236985257592 56.31693986408694 0
481 1 4 31.308366061319703 56.0951751124567 0
482 1 4 38.30652453218275 56.04016362492277 0
483 1 4 45.057867644842254 56.31948862151836 0
484 1 4 52.17093244953568 56.29818431524327 0
485 1 4 59.20605388894788 56.22934421918798 0
486 1 4 66.17513012334636 56.105518792510814 0
487 1 4 72.87863381783401 56.043474789558715 0
488 1 4 79.97841854335627 56.121856308393134 0
489 1 4 86.8589645864425 56.13126597588112 0
490 1 4 93.82511516954156 56.20475740787747 0
491 1 4 100.8332463841445 56.28638770615791 0
492 1 4 107.67412978920419 56.089838113300914 0
493 1 4 114.58720102210499 56.328278119614 0
494 1 4 121.32562553868325 56.27431033303548 0
495 1 4 128.18924482814865 56.18808661229886 0
496 1 4 135.1075543804898 56.09692412649029 0
497 1 4 142.2693734289965 56.3179285546425 0
498 1 4 149.0347259193061 56.26662748404204 0
499 1 4 156.19207852068823 56.16072914013579 0
500 1 4 162.9348616866845 56.15267887990027 0
501 1 2 -3.1069354168552814 60.28748553917489 0
502 1 4 3.72017171880279 60.09373185167754 0
503 1 4 10.477741984860707 60.39816249760361 0
504 1 4 17.384076486447523 60.094745753052216 0
505 1 4 24.31235861391486 60.38985005835621 0
506 1 4 31.458135720482307 60.26254300554218 0
507 1 4 38.271857664093716 60.056093732912466 0
508 1 4 45.33248642835777 60.22098697939519 0
509 1 4 52.08816027935731 60.021187384801976 0
510 1 4 58.92737294994093 60.31843768516043 0
511 1 4 66.19279210284904 60.028516314740195 0
512 1 4 72.92500478549738 60.07570614256537 0
513 1 4 79.88966005004919 60.3480486562691 0
514 1 4 86.74579508392954 60.10411167351916 0
515 1 4 93.72733881410156 60.259140060873484 0
516 1 4 100.85433787111627 60.25077035561372 0
517 1 4 107.7532346175019 60.36795745301 0
518 1 4 114.64835523646667 60.31069847688748 0
519 1 4 121.56198212726545 60.33397079127669 0
520 1 4 128.4146659065763 60.189847685387036 0
521 1 4 135.10303971480306 60.044913138282396 0
522 1 4 142.40458604555593 60.21489875149754 0
523 1 4 149.0378412426538 60.00738983789714 0
524 1 4 155.91404526984329 60.128685239780566 0
525 1 4 163.0551125829311 60.086124663002735 0
526 1 4 0.3006230479309401 62.35818721931525 0
527 1 4 7.262149115277007 62.231419138307096 0
528 1 4 14.153200115326941 62.14363390734046 0
529 1 4 20.968735742407656 62.220917141198235 0
530 1 4 27.923639995707997 62.300316908757715 0
531 1 4 34.67888651755087 62.169718684546666 0
532 1 4 41.62192471890837 62.16270777240104 0
533 1 4 48.6976409649403 62.30978638164699 0
534 1 4 55.44067480821594 62.16541800217949 0
535 1 4 62.42081573023764 62.06069043825029 0
536 1 4 69.31299513459538 62.10957116130227 0
537 1 4 76.22922224275224 62.196706972475724 0
538 1 4 83.44833674240384 62.09932571684584 0
539 1 4 90.37329169158896 62.22730552889956 0
540 1 4 97.27874222041592 62.00904381918589 0
541 1 4 104.16524211218503 62.04561008358208 0
542 1 4 110.98900342009641 62.26386119236791 0
543 1 4 118.1528879534095 62.39743876089242 0
544 1 4 124.75081930134247 62.39460230851582 0
545 1 4 132.0225026730255 62.36896571718653 0
546 1 4 138.9058290854881 62.04226492278316 0
547 1 4 145.67858205298313 62.14160155459558 0
548 1 4 152.7540331660974 62.161712498897195 0
549 1 4 159.3690066551453 62.01902593177497 0
550 1 4 166.61959050832274 62.399315465229435 0
551 1 4 0.36071114321442305 66.05895411278901 0
552 1 4 7.2814868102253065 66.30667845129318 0
553 1 4 13.877297491488159 66.3100673458223 0
554 1 4 20.845035861470144 66.02981660743549 0
555 1 4 28.001029501118374 66.06660451141424 0
556 1 4 35.02302687714079 66.10424471255239 0
557 1 4 41.66282585801803 66.0228900364133 0
558 1 4 48.84590257699788 66.38655829111757 0
559 1 4 55.63574577849549 66.37566349023902 0
560 1 4 62.451683587971246 66.27794236349195 0
561 1 4 69.32356151873515 66.09116683222776 0
562 1 4 76.44277637681891 66.05713562814525 0
563 1 4 83.479649994358 66.14675754286762 0
564 1 4 90.4207448288974 66.1308565590912 0
565 1 4 97.03217378269954 66.07503174731771 0
566 1 4 103.92577080655823 66.15366414607153 0
567 1 4 111.03163847058383 66.22688342143587 0
568 1 4 118.13159696541774 66.04405926335501 0
569 1 4 124.80518854340654 66.09767048199242 0
570 1 4 131.64876821895763 66.26442105689516 0
571 1 4 138.90712857309583 66.2109767954397 0
572 1 4 145.67334378884192 66.34725978092052 0
573 1 4 152.7863058580562 66.1255395145197 0
574 1 4 159.3581382102937 66.32483094260971 0
575 1 4 166.44715954592075 66.10738582553496 0
576 1 2 -3.434074225693129 68.3885682772831 0
577 1 4 3.496776381227001 68.19207904019069 0
578 1 4 10.621486522566219 68.2929210036547 0
579 1 4 17.34952627333309 68.34024721792704 0
580 1 4 24.48256895545499 68.11774790947582 0
581 1 4 31.39155145952576 68.28497336131419 0
582 1 4 38.19927848357345 68.04743537360952 0
583 1 4 45.06426014852626 68.18055007916435 0
584 1 4 52.291787145201916 68.28009122269408 0
585 1 4 59.21804398980839 68.21097206602391 0
586 1 4 65.82230692528402 68.1557239792193 0
587 1 4 73.07355135541357 68.2235497798159 0
588 1 4 79.78281067680605 68.24435073410272 0
589 1 4 86.76196065756545 68.04635913826945 0
590 1 4 93.818250886944 68.04203019660912 0
591 1 4 100.58022397085205 68.07565834563754 0
592 1 4 107.48884621697634 68.03190575962614 0
593 1 4 114.56592860435747 68.10517694723399 0
594 1 4 121.54606956641567 68.26271637669133 0
595 1 4 128.21899107413805 68.0599786262268 0
596 1 4 135.350753316395 68.2927537472999 0
597 1 4 142.41382888796343 68.18620057005359 0
598 1 4 149.23982086934288 68.2383695808643 0
599 1 4 156.068534501177 68.36160131532009 0
600 1 4 163.14555801111624 68.38432006735793 0
601 1 2 -3.189735346166951 72.22392989210724 0
602 1 4 3.496416219810093 72.38370404097053 0
603 1 4 10.704617818098727 72.19077693441909 0
604 1 4 17.466654323163812 72.09800218192812 0
605 1 4 24.453423730390888 72.22547587089433 0
606 1 4 31.223720908360857 72.37123365171234 0
607 1 4 38.362579999334926 72.01456159040691 0
608 1 4 45.2093690493809 72.03116271840673 0
609 1 4 52.13233758286583 72.06493751502248 0
610 1 4 58.91169651829361 72.0725928404686 0
611 1 4 66.01035608834775 72.07619681718444 0