
14309 atoms
14896 bonds
16659 angles
42 atom types
11 bond types
33 angle types

-5.680607966083864 171.52447279080386 xlo xhi
-2.0 148.0 ylo yhi
-4 4 zlo zhi


Masses

1 0.00015118544982137055
2 0.0003326079896070152
3 0.00033260798960701527
4 0.0006954530691783045
5 0.000786164339071127
6 0.0002418967197141929
7 0.0003930821695355635
8 0.0007861643390711271
9 0.0005745047093212081
10 0.0006047417992854822
11 0.0003023708996427411
12 0.00048379343942838576
13 0.0004233192594998376
14 0.0007256901591425788
15 0.0012699577784995128
16 0.0007256901591425786
17 0.0003628450795712894
18 0.0009675868788567716
19 0.00102806105878532
20 0.000544267619356934
21 0.001088535238713868
22 0.0006652159792140304
23 0.0011490094186424164
24 0.0008466385189996752
25 0.00042331925949983765
26 0.0011490094186424162
27 0.0012699577784995126
28 0.0004837934394283858
29 0.000272133809678467
30 0.00051403052939266
31 0.0006954530691783046
32 0.0003023708996427411
33 0.0003628450795712894
34 0.0002418967197141929
35 0.00042331925949983765
36 0.0006047417992854822
37 0.000786164339071127
38 0.0009675868788567716
39 0.000544267619356934
40 0.0008466385189996753
41 0.0007256901591425788
42 0.0004837934394283858

Pair Coeffs

1 0.40509979849834776 0.44544935907016964 0.5
2 0.40509979849834776 0.44544935907016964 0.5
3 0.40509979849834776 0.44544935907016964 0.5
4 0.40509979849834776 0.44544935907016964 0.5
5 0.40509979849834776 0.44544935907016964 0.5
6 0.40509979849834776 0.44544935907016964 0.5
7 0.40509979849834776 0.44544935907016964 0.5
8 0.40509979849834776 0.44544935907016964 0.5
9 0.40509979849834776 0.44544935907016964 0.5
10 0.40509979849834776 0.44544935907016964 0.5
11 0.40509979849834776 0.44544935907016964 0.5
12 0.40509979849834776 0.44544935907016964 0.5
13 0.40509979849834776 0.44544935907016964 0.5
14 0.40509979849834776 0.44544935907016964 0.5
15 0.40509979849834776 0.44544935907016964 0.5
16 0.40509979849834776 0.44544935907016964 0.5
17 0.40509979849834776 0.44544935907016964 0.5
18 0.40509979849834776 0.44544935907016964 0.5
19 0.40509979849834776 0.44544935907016964 0.5
20 0.40509979849834776 0.44544935907016964 0.5
21 0.40509979849834776 0.44544935907016964 0.5
22 0.40509979849834776 0.44544935907016964 0.5
23 0.40509979849834776 0.44544935907016964 0.5
24 0.40509979849834776 0.44544935907016964 0.5
25 0.40509979849834776 0.44544935907016964 0.5
26 0.40509979849834776 0.44544935907016964 0.5
27 0.40509979849834776 0.44544935907016964 0.5
28 0.40509979849834776 0.44544935907016964 0.5
29 0.40509979849834776 0.44544935907016964 0.5
30 0.40509979849834776 0.44544935907016964 0.5
31 0.40509979849834776 0.44544935907016964 0.5
32 0.40509979849834776 0.44544935907016964 0.5
33 0.40509979849834776 0.44544935907016964 0.5
34 0.40509979849834776 0.44544935907016964 0.5
35 0.40509979849834776 0.44544935907016964 0.5
36 0.40509979849834776 0.44544935907016964 0.5
37 0.40509979849834776 0.44544935907016964 0.5
38 0.40509979849834776 0.44544935907016964 0.5
39 0.40509979849834776 0.44544935907016964 0.5
40 0.40509979849834776 0.44544935907016964 0.5
41 0.40509979849834776 0.44544935907016964 0.5
42 0.40509979849834776 0.44544935907016964 0.5

Bond Coeffs

1 60.474179928548224 0.5
2 72.56901591425788 0.5
3 48.37934394283858 0.5
4 84.66385189996753 0.5
5 120.94835985709645 0.5
6 157.2328678142254 0.5
7 193.51737577135432 0.5
8 108.8535238713868 0.5
9 169.32770379993505 0.5
10 145.13803182851575 0.5
11 96.75868788567716 0.5

Angle Coeffs

1 1.8430143519575213 180
2 3.1847288001825973 180
3 0.9436233482022512 180
4 5.05723138177144 180
5 14.74411481566017 180
6 32.3928202500054 180
7 60.39189428494408 180
8 10.748459700616266 180
9 40.45785105417152 180
10 25.47783040146078 180
11 7.54898678561801 180
12 2.3348451614241914 120
13 1.5904806311222222 120
14 20.26451063497366 120
15 23.701685355158588 120
16 0.9436233482022512 120
17 1.7349342265811878 120
18 31.266174696604836 120
19 12.43315176473831 120
20 11.647008183524926 120
21 1.8430143519575213 120
22 1.24817903201356 120
23 7.531245542474221 120
24 5.05723138177144 120
25 42.16780287431181 120
26 32.3928202500054 120
27 1.7737280981245334 120
28 14.74411481566017 120
29 16.98460893664903 120
30 10.748459700616266 120
31 18.67876129139353 120
32 25.477830401460768 120
33 8.868994950387632 120

Atoms

1 1 1 -3.3740762666950856 0.10072017833704466 0
2 1 2 3.7790609056410513 0.33854899498280583 0
3 1 3 10.417050875698457 0.2699523145817925 0
4 1 4 17.62730761466596 0.27441751852579355 0
5 1 5 24.602053111178073 0.29405083259553993 0
6 1 6 31.540499960609992 0.1500073131133599 0
7 1 7 38.37223317562433 0.045218458459681844 0
8 1 8 45.352242662125114 0.01836988951607519 0
9 1 9 52.30913412826937 0.32296767634781354 0
10 1 10 59.041459071037174 0.3344155969925553 0
11 1 10 65.83103013831096 0.09546192773163736 0
12 1 9 72.9728542535202 0.0231084278813106 0
13 1 8 79.76892403059347 0.19693989899365216 0
14 1 7 86.89540014588546 0.1289381859408277 0
15 1 6 93.55741834769283 0.3949196761562713 0
16 1 5 100.8521071634879 0.07992261669937545 0
17 1 4 107.52716667540375 0.06051378813166611 0
18 1 3 114.6624244378104 0.25526287040662765 0
19 1 2 121.50776771820404 0.1703325366209644 0
20 1 11 128.2650218538722 0.3359840012021778 0
21 1 11 135.48172428391342 0.386279582458922 0
22 1 11 142.3884717136866 0.3207036316167544 0
23 1 11 149.15808339251709 0.10838333073986961 0
24 1 11 156.25112655476616 0.09676712671256307 0
25 1 11 162.91964891915433 0.1085526069020582 0
26 1 12 0.038986372511246925 2.0560473686596907 0
27 1 13 7.227722406880297 2.0531486332111046 0
28 1 14 14.09559381973861 2.192520392345563 0
29 1 15 20.83180242376159 2.382765311854498 0
30 1 16 27.830508553321245 2.341608834013438 0
31 1 17 35.002303663361914 2.0617658105163548 0
32 1 18 41.967349642625315 2.015556652713414 0
33 1 19 48.7198058423661 2.38237241056919 0
34 1 5 55.51687061541148 2.3657451325224486 0
35 1 18 62.48871723436708 2.1279888166253316 0
36 1 5 69.56784657807523 2.1712923812713676 0
37 1 19 76.58084827680615 2.174099633979514 0
38 1 18 83.3651086916601 2.2060320663231505 0
39 1 17 90.31790521351401 2.125045733311554 0
40 1 16 97.04854827890802 2.1352446185896166 0
41 1 15 104.03027375746817 2.2140927918986137 0
42 1 14 111.07908026550412 2.3169436625524074 0
43 1 13 117.83801905778128 2.1237811789054346 0
44 1 12 124.95011993343948 2.2352177399222732 0
45 1 13 131.6905628860107 2.2016139445202416 0
46 1 13 138.62233536918225 2.316996708325782 0
47 1 13 145.52470407101382 2.0802416746624277 0
48 1 13 152.6177259109941 2.1767300670261487 0
49 1 13 159.6105672227927 2.1557844769063244 0
50 1 13 166.6713188901489 2.3728003268290085 0
51 1 13 0.19778375257514305 6.261273871633513 0
52 1 12 6.995602117188938 6.131692652231975 0
53 1 20 13.99193387238612 6.011508043858868 0
54 1 21 21.01309498829732 6.241011548697129 0
55 1 21 28.10636367768481 6.22084456872612 0
56 1 17 34.86170446708637 6.270787142334158 0
57 1 22 41.635821336167815 6.241244442347478 0
58 1 23 48.87514350919694 6.002078350654563 0
59 1 24 55.539599197485714 6.058756059137799 0
60 1 5 62.51516320713875 6.1231248267314395 0
61 1 24 69.42115654349537 6.134619040854056 0
62 1 23 76.4986720060632 6.086948957671573 0
63 1 22 83.44490013465577 6.276657109194152 0
64 1 17 90.25026764139277 6.089409654913476 0
65 1 21 97.29150241325127 6.064281156789795 0
66 1 21 104.03648941835898 6.0281386575047256 0
67 1 20 110.88445026949769 6.1725987287739645 0
68 1 12 118.03229823932105 6.039969856627847 0
69 1 13 124.91266891078236 6.273761727944455 0
70 1 20 131.693859192444 6.28848434007585 0
71 1 20 138.60422889627174 6.197370720061244 0
72 1 20 145.5726296359955 6.147647378192896 0
73 1 20 152.74788825007803 6.2918269023956075 0
74 1 20 159.56200559959498 6.014765549941287 0
75 1 20 166.5278436732708 6.189231370898253 0
76 1 3 -3.2843488425054517 8.091393599958831 0
77 1 12 3.5717940586194175 8.059771992846347 0
78 1 13 10.516869775612854 8.109642281249519 0
79 1 14 17.34696927929359 8.276570167122927 0
80 1 15 24.381006657118697 8.086795978997813 0
81 1 16 31.42539973094168 8.206254108772933 0
82 1 17 38.49953096863295 8.359516286039563 0
83 1 18 45.32608679736742 8.234028539539596 0
84 1 19 52.118524331917556 8.214126431534611 0
85 1 24 58.96467675187695 8.377145381755538 0
86 1 24 66.155136679159 8.072370289888894 0
87 1 19 73.07939210455905 8.085745365813676 0
88 1 18 79.76520750733026 8.159793843728108 0
89 1 17 86.7474859262413 8.09480809944109 0
90 1 16 93.72055610795141 8.146412670734405 0
91 1 15 100.47348095077774 8.074569634761687 0
92 1 14 107.76320139523895 8.323756839224947 0
93 1 13 114.36883139994896 8.232195189383122 0
94 1 12 121.62185758559612 8.381495372988299 0
95 1 20 128.33334218798618 8.127546935587988 0
96 1 14 135.4667621606343 8.111465405116089 0
97 1 14 142.1014222484896 8.300701987928424 0
98 1 14 149.22069630591932 8.338181708166148 0
99 1 14 156.26062515603687 8.138796540269233 0
100 1 14 163.01853840465785 8.354668525062547 0
101 1 25 -3.4315018192369218 12.229038297631401 0
102 1 13 3.791466167418698 12.190474113821718 0
103 1 12 10.652538812456388 12.094555295961127 0
104 1 20 17.67007268531724 12.280276447138544 0
105 1 21 24.375535916715354 12.139971712069705 0
106 1 21 31.356571774806397 12.059062289912873 0
107 1 17 38.116169460499066 12.092406306201505 0
108 1 22 45.26624989196394 12.234984622773556 0
109 1 23 52.014880557603135 12.240590394307446 0
110 1 19 59.28061337220433 12.032004381089433 0
111 1 19 66.20461395900897 12.285901903335104 0
112 1 23 72.77502697274475 12.249420331921481 0
113 1 22 80.04584010060412 12.059896358279907 0
114 1 17 86.71003744446186 12.277583779482143 0
115 1 21 93.89732248722473 12.012341554237384 0
116 1 21 100.65072312936734 12.011556311873747 0
117 1 20 107.68759020699336 12.222844261659736 0
118 1 12 114.51583809175935 12.113028586413146 0
119 1 13 121.40064964089338 12.281661550815418 0
120 1 14 128.4994079113031 12.018964030771027 0
121 1 21 135.37487014832206 12.377588607914605 0
122 1 21 142.2177565509597 12.19112667522071 0
123 1 21 149.05547787936163 12.033093089510382 0
124 1 21 156.116538524372 12.107730710771062 0
125 1 21 163.14198675900815 12.396815248548636 0
126 1 20 0.03854686130253598 14.164306792936335 0
127 1 12 7.234093901196523 14.08352942382505 0
128 1 13 14.231009952669648 14.191822666771026 0
129 1 14 21.11217711619284 14.311432606101722 0
130 1 15 28.049775211569564 14.310360611411676 0
131 1 16 35.001677005175104 14.157976751742687 0
132 1 17 41.600394701109934 14.016026557248216 0
133 1 18 48.72962962470437 14.042235231056477 0
134 1 26 55.66767045963356 14.191655860069247 0
135 1 26 62.70269215705435 14.396840472796674 0
136 1 26 69.41466885195575 14.025842353864165 0
137 1 18 76.5863977221256 14.142596487101672 0
138 1 17 83.21243420905085 14.061336554961585 0
139 1 16 90.4629238702814 14.17148374553052 0
140 1 15 97.25805343946138 14.164413837206377 0
141 1 14 104.16524438519225 14.127553876400821 0
142 1 13 110.88970481499591 14.053614205704191 0
143 1 12 117.80503040778174 14.22331517645857 0
144 1 20 124.97809424543101 14.323398765453923 0
145 1 21 131.76046210576968 14.291158129684721 0
146 1 27 138.7748827226754 14.308899566707183 0
147 1 27 145.82306217235262 14.362128214578915 0
148 1 27 152.67444605230642 14.309342431083241 0
149 1 27 159.7065066890634 14.333577557008937 0
150 1 27 166.48642219406995 14.122648310986035 0
151 1 14 0.3686482832116188 18.17565362875463 0
152 1 13 7.102544637172723 18.205858787738 0
153 1 12 14.196219688465128 18.017777696801048 0
154 1 20 20.945055453264715 18.395739639565942 0
155 1 21 27.907641762440303 18.149291509680122 0
156 1 21 34.82622888486808 18.300606519318073 0
157 1 17 41.673416708447064 18.232078511501136 0
158 1 22 48.83914948912912 18.0798411728389 0
159 1 18 55.59423807670787 18.125590397483286 0
160 1 18 62.60418491517766 18.300956440928015 0
161 1 18 69.39243995994251 18.201557588816378 0
162 1 22 76.45131559741529 18.23102150910581 0
163 1 17 83.30336507468047 18.104671698603163 0
164 1 21 90.07128913548308 18.394215939977265 0
165 1 21 97.19545642792973 18.195383278509414 0
166 1 20 104.28934625072121 18.13842949652776 0
167 1 12 111.08091923526649 18.079383172904247 0
168 1 13 118.17729591675008 18.264686769941676 0
169 1 14 124.9572807673616 18.17985169869327 0
170 1 15 132.00449067679708 18.323282742817707 0
171 1 21 138.8647040832266 18.10219515950791 0
172 1 21 145.8614430352425 18.29190604821326 0
173 1 21 152.51977502945232 18.322019437867418 0
174 1 21 159.42878028510012 18.363950827048395 0
175 1 21 166.3808463712301 18.049143439510352 0
176 1 4 -3.28822909432371 20.088287092180114 0
177 1 20 3.7024310358479733 20.2672351056517 0
178 1 12 10.618445688697555 20.206564707524823 0
179 1 13 17.507634223470983 20.06117100367072 0
180 1 14 24.32687880834338 20.311922184621423 0
181 1 15 31.49617000361183 20.01922791961025 0
182 1 16 38.10633016002445 20.36709157063028 0
183 1 17 45.14642872090781 20.314396531680977 0
184 1 22 52.07566656767889 20.246085398425883 0
185 1 22 58.97550339863775 20.121498293809395 0
186 1 22 65.82868203296441 20.215533278114435 0
187 1 22 73.07066076244016 20.192074691879085 0
188 1 17 79.99629488885898 20.00092723389403 0
189 1 16 86.8149037222585 20.234592990659124 0
190 1 15 93.75211692271624 20.26819291009079 0
191 1 14 100.81972539435455 20.045836606113742 0
192 1 13 107.46372600872532 20.231605925890616 0
193 1 12 114.34058230617366 20.37446738250863 0
194 1 20 121.62193534626097 20.007396163380623 0
195 1 21 128.3862476313988 20.13868482611328 0
196 1 21 135.40468052982814 20.197840415840975 0
197 1 16 142.42467576065505 20.026761841224246 0
198 1 16 149.11160837888605 20.340003947297358 0
199 1 16 155.9916471235706 20.10817759675381 0
200 1 16 162.9173533645536 20.1876914514944 0
201 1 5 -3.207280641834124 24.1367891767196 0
202 1 14 3.583740651328468 24.271284684610883 0
203 1 13 10.415783161280515 24.21399775428153 0
204 1 12 17.480701400732595 24.008853390487463 0
205 1 20 24.2838713968798 24.317020459518265 0
206 1 21 31.559675465686155 24.36935030003368 0
207 1 21 38.3589231425664 24.113143445957025 0
208 1 17 45.36522051483868 24.332926390711567 0
209 1 17 52.07289573459513 24.087664513799673 0
210 1 17 59.04475063964198 24.087907697213172 0
211 1 17 66.19661041406553 24.044975115392205 0
212 1 17 73.0711223912217 24.267517076482843 0
213 1 17 79.69319542687474 24.30022584286707 0
214 1 21 86.63153964803672 24.24306729572826 0
215 1 21 93.67674933842754 24.067858074135767 0
216 1 20 100.5620680924201 24.200984163879248 0
217 1 12 107.63243539441719 24.018574595639812 0
218 1 13 114.36465215670303 24.259547837494594 0
219 1 14 121.4540921364688 24.08857313993898 0
220 1 15 128.25757655246352 24.32618229059484 0
221 1 16 135.10241448054052 24.15969184259303 0
222 1 17 142.1644330716471 24.04546687784901 0
223 1 17 149.020634265576 24.306501136099534 0
224 1 17 155.90272508205828 24.086785124770486 0
225 1 17 162.82286889560584 24.397831159002997 0
226 1 21 0.04627567404251059 26.234616305735464 0
227 1 20 7.182045000303898 26.292125062239446 0
228 1 12 14.213890267432854 26.053991729041318 0
229 1 13 21.034612619722473 26.394673969083755 0
230 1 14 27.932754305569937 26.049969017141297 0
231 1 15 34.73820570886753 26.20295992085336 0
232 1 16 41.68706437036218 26.095514987527473 0
233 1 17 48.65701995416894 26.127495319633972 0
234 1 17 55.62300720259052 26.223421869969712 0
235 1 17 62.721819882976895 26.188452960134168 0
236 1 17 69.49202215455863 26.379880930025838 0
237 1 17 76.43546097226977 26.367035801301427 0
238 1 16 83.1405503583233 26.2750772796215 0
239 1 15 90.33196689520547 26.195735617246957 0
240 1 14 97.10947789835112 26.165298787842225 0
241 1 13 104.322176726902 26.281707450552297 0
242 1 12 111.09025978403794 26.389403059700545 0
243 1 20 117.88333851322741 26.019263074457562 0
244 1 21 124.89967384449835 26.268813283408594 0
245 1 21 131.69353717676995 26.25628457552482 0
246 1 17 138.90145243018856 26.016757643640613 0
247 1 17 145.64792292967994 26.000298018063237 0
248 1 17 152.72759641766947 26.242761105240834 0
249 1 17 159.6748233649897 26.103534815360465 0
250 1 17 166.40958587948512 26.39677603299357 0
251 1 15 0.15326018564588373 30.323661836742446 0
252 1 14 7.257026944382886 30.0082303169228 0
253 1 13 14.163547041556377 30.308580436971567 0
254 1 12 21.053655957438522 30.35100113420682 0
255 1 20 27.95036794989945 30.027627549349795 0
256 1 21 34.96811357774691 30.223706942798003 0
257 1 21 41.68034968432111 30.13032050720755 0
258 1 16 48.59150869932089 30.095874514138778 0
259 1 16 55.48526012854448 30.215573963937743 0
260 1 16 62.510001511920244 30.25793969042921 0
261 1 16 69.50069067443908 30.385785653358255 0
262 1 16 76.28942999099587 30.332102113913717 0
263 1 21 83.17966267619829 30.33743789570638 0
264 1 21 90.13915660075907 30.2328150966829 0
265 1 20 97.39315805804826 30.2735308334966 0
266 1 12 104.09254560212145 30.024280067481868 0
267 1 13 110.97637443678867 30.035523937347715 0
268 1 14 118.14359145498116 30.224519338426074 0
269 1 15 124.91332759624964 30.003764997472896 0
270 1 16 132.0061229886329 30.01691804352033 0
271 1 17 138.884569865567 30.214943633394846 0
272 1 22 145.5989062957684 30.292707277562602 0
273 1 22 152.56548648846115 30.3891291707592 0
274 1 22 159.46341009071557 30.080129530734357 0
275 1 22 166.5110899782093 30.35576578387389 0
276 1 5 -3.287465160091351 32.27828042416193 0
277 1 21 3.596029954825708 32.23540655234926 0
278 1 20 10.78035563144434 32.23693389977732 0
279 1 12 17.342644357261143 32.21260676929996 0
280 1 13 24.56770593458786 32.33051931710533 0
281 1 14 31.35861818500983 32.339735094198126 0
282 1 15 38.151553415341915 32.32718756630207 0
283 1 21 45.058278198865 32.06446810073235 0
284 1 21 52.333729343824835 32.075083645853645 0
285 1 21 59.078262173081015 32.043510139769836 0
286 1 21 66.15050949571327 32.10633108385237 0
287 1 21 72.89453714789735 32.236373602961045 0
288 1 21 79.94030991785004 32.10875113748833 0
289 1 15 86.6809603815217 32.31902164309705 0
290 1 14 93.58673622245476 32.05620786882025 0
291 1 13 100.72820068875299 32.19583143656979 0
292 1 12 107.6423569256223 32.16123299182426 0
293 1 20 114.69560749744706 32.114836377768725 0
294 1 21 121.56931764960419 32.101806096095785 0
295 1 21 128.22163234807428 32.35361948103667 0
296 1 17 135.12708506997257 32.1706896998839 0
297 1 22 142.25022467692548 32.27676739579699 0
298 1 18 149.21828953313917 32.36465508734594 0
299 1 18 155.96621917844675 32.23414406434771 0
300 1 18 163.18444114309827 32.37485770307682 0
301 1 10 -3.4241571311143435 36.19358443206471 0
302 1 15 3.5740405939222604 36.07738623094769 0
303 1 14 10.731831001962576 36.19137260741719 0
304 1 13 17.39784088729503 36.04401380733462 0
305 1 12 24.63230903411786 36.221053653379656 0
306 1 20 31.401193919590355 36.194214673051576 0
307 1 21 38.32287528043123 36.36955089088733 0
308 1 27 45.278588649408405 36.141843199816535 0
309 1 27 52.271612336298546 36.100291877319215 0
310 1 27 59.081821504705005 36.16271233087229 0
311 1 27 66.00798364964321 36.17913268954596 0
312 1 27 72.90473354300389 36.34564265286134 0
313 1 27 79.78875663741792 36.028364106968 0
314 1 21 86.70491505527097 36.16526308365154 0
315 1 20 93.8048764682755 36.31126934587871 0
316 1 12 100.57760499492333 36.022617497291016 0
317 1 13 107.68198933301548 36.295194562823255 0
318 1 14 114.44598494029451 36.19383434888007 0
319 1 15 121.63708793695885 36.035314968866544 0
320 1 16 128.45688960539277 36.39544346541863 0
321 1 17 135.43509881017349 36.26971925044311 0
322 1 18 142.30454743413566 36.01275084433662 0
323 1 26 149.32993594895538 36.186147890402886 0
324 1 26 156.172032793874 36.20663670900646 0
325 1 26 162.8853310203445 36.04886008928251 0
326 1 21 0.23327725257269114 38.167738170808484 0
327 1 21 7.271925041575838 38.23713510187394 0
328 1 20 14.033480954326093 38.20372100066285 0
329 1 12 21.050996559036836 38.05546012000519 0
330 1 13 27.74162646371055 38.002191714489776 0
331 1 14 34.91265099469161 38.39227555190184 0
332 1 21 41.730811846549024 38.050211369767126 0
333 1 21 48.509456978558525 38.35074618904259 0
334 1 21 55.755292399585464 38.051385762630005 0
335 1 21 62.58838862326638 38.1516981200039 0
336 1 21 69.52595742228466 38.32440339651265 0
337 1 21 76.29405692388691 38.189482990921334 0
338 1 21 83.26124350488425 38.29323692565993 0
339 1 14 90.42560893653082 38.16701812098285 0
340 1 13 97.32860737152403 38.14253152476949 0
341 1 12 104.1206110305885 38.23051968536364 0
342 1 20 111.14994207169737 38.10365349652844 0
343 1 21 117.91691892895423 38.34889371204259 0
344 1 21 125.05801420424203 38.38702080336712 0
345 1 17 131.63877890675596 38.06802224832022 0
346 1 22 138.73448160142814 38.03792777188412 0
347 1 23 145.5028332254182 38.33227210372543 0
348 1 19 152.47897856372646 38.109737106267794 0
349 1 19 159.53282348239586 38.152443298415314 0
350 1 23 166.51423546306552 38.02401504780519 0
351 1 16 0.2914184298667797 42.066042353235986 0
352 1 15 7.018307688334127 42.235629090793005 0
353 1 14 14.236869536112115 42.35271911823495 0
354 1 13 20.846114095846684 42.24159854723558 0
355 1 12 27.72551993762822 42.39488932399858 0
356 1 20 34.79534553816264 42.155464011400205 0
357 1 14 41.58979895165593 42.09127712297317 0
358 1 14 48.7834262974448 42.11761905695796 0
359 1 14 55.71051187655583 42.0649829422609 0
360 1 14 62.708525571908446 42.1712201673016 0
361 1 14 69.35112379319756 42.00458680003232 0
362 1 14 76.45059036520978 42.176845727235126 0
363 1 14 83.14972532885474 42.09271970744521 0
364 1 20 90.26635231518848 42.00870223660066 0
365 1 12 97.18872979237453 42.37666867778615 0
366 1 13 104.07990340830662 42.120520925119976 0
367 1 14 110.91879638296926 42.306652527887735 0
368 1 15 118.17436466033814 42.03338585930655 0
369 1 16 125.08944302800242 42.15520486449053 0
370 1 17 131.90136933160855 42.38796760110037 0
371 1 18 138.7235736002392 42.02285472101374 0
372 1 19 145.49960376795326 42.20042834707972 0
373 1 24 152.42261829843062 42.221554040018994 0
374 1 24 159.44142397455545 42.320546805017024 0
375 1 19 166.6639950368267 42.206121675132884 0
376 1 6 -3.437585817125567 44.20076676735141 0
377 1 21 3.504696895186649 44.14775364716519 0
378 1 21 10.64572353914473 44.266463509022074 0
379 1 20 17.44171322737731 44.38355979311542 0
380 1 12 24.343433520558037 44.37924310597671 0
381 1 13 31.3215263858104 44.323695510500905 0
382 1 20 38.31617742524886 44.318687692394505 0
383 1 20 45.04011362443051 44.37287543003665 0
384 1 20 52.088895133357305 44.11563268738988 0
385 1 20 59.10917291821872 44.06551130216742 0
386 1 20 66.03792820982031 44.047762153954814 0
387 1 20 73.03566353010588 44.07463964118394 0
388 1 20 79.90504808296753 44.38354466682284 0
389 1 20 86.74589781358624 44.23045047969083 0
390 1 13 93.73914840113011 44.0948408744953 0
391 1 12 100.84863640448836 44.3140803403976 0
392 1 20 107.45206065864357 44.03656053195199 0
393 1 21 114.39682729972128 44.067637790610895 0
394 1 21 121.57733077277308 44.08055783211133 0
395 1 17 128.48058746100367 44.14242933682506 0
396 1 22 135.46980734280643 44.09304362278768 0
397 1 23 142.34406443991946 44.093338080274755 0
398 1 24 149.1218989830206 44.281176086784846 0
399 1 5 156.0358250915761 44.21509879826676 0
400 1 24 162.83974955951712 44.26595222264652 0
401 1 6 -3.4594606792397187 48.12733261571372 0
402 1 16 3.6155100197850687 48.368144448856796 0
403 1 15 10.551610038204913 48.211938672612305 0
404 1 14 17.640933236414973 48.06762272032024 0
405 1 13 24.451773067907915 48.31699035700169 0
406 1 12 31.548579240539464 48.03470705393656 0
407 1 13 38.216648234411046 48.04037426034843 0
408 1 13 45.03830878320494 48.36590467376677 0
409 1 13 52.16014823160096 48.13824655982258 0
410 1 13 59.085987682215034 48.067324205951316 0
411 1 13 65.93574379292228 48.152172840262956 0
412 1 13 72.89510836282233 48.317766445148735 0
413 1 13 79.97891219289886 48.21942509248081 0
414 1 13 86.74335047686726 48.398419645456435 0
415 1 12 93.84668650466007 48.07503210038442 0
416 1 13 100.71219511060174 48.24438604392397 0
417 1 14 107.56102734525597 48.273252976137826 0
418 1 15 114.57311873398358 48.16998636253017 0
419 1 16 121.55497459459566 48.29608703626301 0
420 1 17 128.17806058561044 48.327828094136535 0
421 1 18 135.10017060305995 48.16106020334293 0
422 1 19 142.04525071953216 48.33453923724088 0
423 1 5 149.17646248388522 48.318474457753034 0
424 1 18 156.13139667477267 48.34401451608776 0
425 1 5 163.00349334463758 48.372782034961006 0
426 1 17 0.22362527997923523 50.21550021718516 0
427 1 21 7.25192778181485 50.001949807384 0
428 1 21 14.023833204549952 50.096918615312575 0
429 1 20 21.118577588767113 50.08983258924995 0
430 1 12 28.070239008869894 50.291392183769965 0
431 1 28 34.803927374464486 50.16202384570391 0
432 1 28 41.8558806790013 50.287605751076484 0
433 1 28 48.636845957543116 50.08436792385815 0
434 1 28 55.682576370537 50.240643379279824 0
435 1 28 62.61331246534559 50.22691484337449 0
436 1 28 69.57423057974714 50.25718324371484 0
437 1 28 76.44153985609772 50.081869025764604 0
438 1 28 83.37010494119868 50.170634207367776 0
439 1 28 90.33981312912634 50.187915705026505 0
440 1 12 97.24616686415096 50.18764567531752 0
441 1 20 103.99627877911237 50.02806581786365 0
442 1 21 110.94630847627812 50.248684076517804 0
443 1 21 118.00913412162804 50.01103545683421 0
444 1 17 124.86577856039165 50.00571931662311 0
445 1 22 131.81889425829658 50.30101189476625 0
446 1 23 138.69365732564947 50.20155299071619 0
447 1 24 145.618007545602 50.33919014217889 0
448 1 18 152.54219165347425 50.245248352023694 0
449 1 18 159.64015612479974 50.036664429433664 0
450 1 24 166.29328915628335 50.30423126240059 0
451 1 17 0.263452871013003 54.04012400448896 0
452 1 21 7.277214294811175 54.373773555902524 0
453 1 21 14.179311570189416 54.14876301285858 0
454 1 20 21.067541704451376 54.20651030518269 0
455 1 12 28.002947512350133 54.17193651287761 0
456 1 28 34.87203171352124 54.18478316689175 0
457 1 28 41.737540823012296 54.323099578651856 0
458 1 28 48.743974344620625 54.128770040254565 0
459 1 28 55.65752048800763 54.147418632621196 0
460 1 28 62.52270673216517 54.29760476694922 0
461 1 28 69.60316448957194 54.32986690344423 0
462 1 28 76.27126577234962 54.18253135895476 0
463 1 28 83.28690381114193 54.20681276841815 0
464 1 28 90.30347611897638 54.358636706970756 0
465 1 12 97.0043485284663 54.14527371208865 0
466 1 20 104.2921386338691 54.09383956646678 0
467 1 21 110.85445320417206 54.19644557639127 0
468 1 21 118.1203176861975 54.1434992776771 0
469 1 17 124.74417763232326 54.31870602423163 0
470 1 22 131.6874494293112 54.39633786742622 0
471 1 23 138.62243547059447 54.035503057819845 0
472 1 24 145.8175032986882 54.14936418161417 0
473 1 18 152.46505573439205 54.05949555692864 0
474 1 18 159.6659278542054 54.204434369806705 0
475 1 24 166.59394598897944 54.071754615463874 0
476 1 6 -3.3433695386029494 56.32971546657689 0
477 1 16 3.5146035998380345 56.363496721874505 0
478 1 15 10.71548218555385 56.396719884405826 0
479 1 14 17.667294835588596 56.12881383213423 0
480 1 13 24.5086944850607 56.27129810892784 0
481 1 12 31.258124825585828 56.23222800449879 0
482 1 13 38.46029294554111 56.35858306105341 0
483 1 13 45.114835989857454 56.34618055789179 0
484 1 13 52.31856811915698 56.023437176960925 0
485 1 13 59.047384920724696 56.011071296745 0
486 1 13 65.92233011974714 56.06237401463112 0
487 1 13 73.08350062897138 56.23586130436762 0
488 1 13 80.00896022568091 56.07643808311186 0
489 1 13 86.60305512343542 56.11222500255784 0
490 1 12 93.72185362467562 56.0129559390374 0
491 1 13 100.49562042747779 56.17081080413111 0
492 1 14 107.57418002404607 56.09948241042652 0
493 1 15 114.38834250129503 56.388134285140346 0
494 1 16 121.48979308727476 56.0766654419828 0
495 1 17 128.54332100293598 56.20784556486885 0
496 1 18 135.11646772739542 56.18160704760981 0
497 1 19 142.11286460743946 56.25611244885713 0
498 1 5 149.00854712570495 56.06070616062353 0
499 1 18 156.0643476778114 56.18297394906778 0
500 1 5 163.12032766611222 56.07739279321774 0
501 1 6 -3.150572974599996 60.05703332716587 0
502 1 21 3.741788725937962 60.0919900063254 0
503 1 21 10.686747144478753 60.288263384413916 0
504 1 20 17.557730919153542 60.14749462760851 0
505 1 12 24.516511814702145 60.108162407678584 0
506 1 13 31.48515092495479 60.27351945035632 0
507 1 20 38.471359579166645 60.259919459017915 0
508 1 20 45.24845602380944 60.25669131536984 0
509 1 20 52.0840083886542 60.103089764046196 0
510 1 20 59.10099453461995 60.196674852104636 0
511 1 20 65.96003770176104 60.21152918980406 0
512 1 20 73.11472337574422 60.34073423003738 0
513 1 20 80.00847275336174 60.142532860242916 0
514 1 20 86.87026614521446 60.139514914299184 0
515 1 13 93.7720335816383 60.33624599134219 0
516 1 12 100.66958228474469 60.255733430815674 0
517 1 20 107.53597773114869 60.2161838053935 0
518 1 21 114.68675972727395 60.040933414074736 0
519 1 21 121.28672007373049 60.35952164635815 0
520 1 17 128.17772869359453 60.14543878217368 0
521 1 22 135.49888166746138 60.10122537073726 0
522 1 23 142.04253331060198 60.33685877858251 0
523 1 24 149.21676692823178 60.013790389833076 0
524 1 5 156.15003002415472 60.203201787894535 0