
14309 atoms
14896 bonds
16659 angles
7 atom types
2 bond types
4 angle types

-5.680607966083864 171.52447279080386 xlo xhi
-2.0 148.0 ylo yhi
-4 4 zlo zhi


Masses

1 0.0002649151095513611
2 0.000485677700844162
3 0.0005298302191027222
4 0.000750592810395523
5 0.0002207625912928009
6 0.0005298302191027222
7 0.0004415251825856018

Pair Coeffs

1 0.40509979849834776 0.44544935907016964 0.5
2 0.40509979849834776 0.44544935907016964 0.5
3 0.40509979849834776 0.44544935907016964 0.5
4 0.40509979849834776 0.44544935907016964 0.5
5 0.40509979849834776 0.44544935907016964 0.5
6 0.40509979849834776 0.44544935907016964 0.5
7 0.40509979849834776 0.44544935907016964 0.5

Bond Coeffs

1 105.96604382054444 0.5
2 88.30503651712036 0.5

Angle Coeffs

1 9.915598097706626 180
2 5.738193343580221 180
3 7.269500071632424 120
4 9.915598097706626 120

Atoms

1 1 1 -3.133030798975394 0.07570649665490242 0
2 1 2 3.5585402043391476 0.3981388904341183 0
3 1 2 10.756682533257079 0.08255596484716708 0
4 1 3 17.66918642302093 0.005719569022943994 0
5 1 2 24.325425916559308 0.16630770710673382 0
6 1 2 31.26989366994198 0.35540674232885494 0
7 1 3 38.47411749074579 0.17464386306620916 0
8 1 2 45.064594547625525 0.29445712011308706 0
9 1 2 52.21926740708569 0.06414314188437849 0
10 1 3 58.977241405448744 0.16403987981541204 0
11 1 2 65.90756267666428 0.11603345258767767 0
12 1 2 72.93536876981871 0.32932849488244076 0
13 1 3 79.79567395591557 0.1264044995198703 0
14 1 2 86.74396397679745 0.23628194176456274 0
15 1 2 93.64509337948485 0.21772119653987254 0
16 1 3 100.4852187041178 0.020728128499491263 0
17 1 2 107.45183865845114 0.048296256261116714 0
18 1 2 114.60028226213548 0.19335041996130053 0
19 1 3 121.4786144777911 0.32104291485444303 0
20 1 2 128.53679856019096 0.3290790069328091 0
21 1 2 135.33631238375952 0.2992655203896331 0
22 1 3 142.4045841964051 0.3177684131745637 0
23 1 2 149.24501734773378 0.1826832074768958 0
24 1 2 156.16425367309736 0.18902199237557454 0
25 1 3 163.0212987186861 0.3025189972557605 0
26 1 4 0.20060210777437285 2.2722539685405168 0
27 1 4 6.991004937492673 2.1113861779967893 0
28 1 4 14.052899738085026 2.1644718365521713 0
29 1 4 21.010616823567922 2.017859833157687 0
30 1 4 27.780652893490995 2.257648239864532 0
31 1 4 34.914814094112685 2.2175753148884882 0
32 1 4 41.90748355496504 2.141275934704449 0
33 1 4 48.605548476189675 2.2006794021920837 0
34 1 4 55.55831953915319 2.2847052086615474 0
35 1 4 62.38303123661473 2.257349964916026 0
36 1 4 69.60694333811429 2.0572379422247766 0
37 1 4 76.56649393501351 2.2057827468950757 0
38 1 4 83.46676512521213 2.3693503873731325 0
39 1 4 90.3829841605395 2.3055104031068243 0
40 1 4 97.0096715880071 2.2939608775765277 0
41 1 4 104.26455972450918 2.3610247873520844 0
42 1 4 111.23381795026285 2.289429169485368 0
43 1 4 118.15059179787252 2.169435273048934 0
44 1 4 125.01967470634575 2.2332842460219915 0
45 1 4 131.9656084078558 2.354115621668814 0
46 1 4 138.8094656284317 2.176473548416672 0
47 1 4 145.63325011649974 2.203141538611493 0
48 1 4 152.50995756794944 2.0934567600929066 0
49 1 4 159.66496834330252 2.3743325298841436 0
50 1 4 166.5540256680226 2.141448643636517 0
51 1 4 0.1926826164168849 6.1649727816604445 0
52 1 4 7.280225157475352 6.3495263107444195 0
53 1 4 13.891646020686377 6.0943151786944165 0
54 1 4 20.91773264545999 6.242826891010706 0
55 1 4 27.97696363116724 6.1143142186863475 0
56 1 4 34.68422779440912 6.096264384329062 0
57 1 4 41.74356445539892 6.018686282210523 0
58 1 4 48.677722725473856 6.3287457702725 0
59 1 4 55.79516222550133 6.300067699383611 0
60 1 4 62.72045761439145 6.087372770220255 0
61 1 4 69.67865683945197 6.278636999061663 0
62 1 4 76.36214849733967 6.107435951082252 0
63 1 4 83.47719553985168 6.172428886668891 0
64 1 4 90.38539269640741 6.081882173074961 0
65 1 4 97.25417196272741 6.04779241666128 0
66 1 4 104.03765075279937 6.372432268863793 0
67 1 4 111.2390307407862 6.0699002630712116 0
68 1 4 118.15988078564033 6.082050700529634 0
69 1 4 124.98361992472185 6.008489712662543 0
70 1 4 131.8283911790826 6.051800804451977 0
71 1 4 138.95411421032745 6.093157233544648 0
72 1 4 145.63877029217048 6.235481690091506 0
73 1 4 152.66576891138354 6.040395247122682 0
74 1 4 159.56643693232846 6.035388283478944 0
75 1 4 166.46434834003733 6.034140021363406 0
76 1 2 -3.137267314132043 8.06352994846239 0
77 1 4 3.7439116122465776 8.26170056550598 0
78 1 4 10.642789481914964 8.045862609755853 0
79 1 4 17.713180657721242 8.33762081760293 0
80 1 4 24.546779994399255 8.005638864705597 0
81 1 4 31.316174476379185 8.043380329989523 0
82 1 4 38.39677510495544 8.096829592356134 0
83 1 4 45.32107329519083 8.016871525078955 0
84 1 4 52.099099248981766 8.310637530954166 0
85 1 4 58.89475190197842 8.340785012170185 0
86 1 4 66.01538720777891 8.341757371424166 0
87 1 4 73.04092798593118 8.1352814733293 0
88 1 4 79.7494041469542 8.21232962314224 0
89 1 4 86.67582509448442 8.22178680998503 0
90 1 4 93.56652903693696 8.124827875060479 0
91 1 4 100.47855467188523 8.207092375598519 0
92 1 4 107.6859682611283 8.079466982364044 0
93 1 4 114.62613742460424 8.374577700273088 0
94 1 4 121.27065465797078 8.380504349902893 0
95 1 4 128.46580295173058 8.055540519529682 0
96 1 4 135.30464278267945 8.331073005453748 0
97 1 4 142.2268001742839 8.052176591486113 0
98 1 4 149.14408642462843 8.240905543333827 0
99 1 4 156.21763711722997 8.281423347081939 0
100 1 4 163.0731436735391 8.377577594971672 0
101 1 2 -3.4236399143370044 12.259377084608765 0
102 1 4 3.7859893137459233 12.041249122057039 0
103 1 4 10.662559555021156 12.382697543659225 0
104 1 4 17.418868622270985 12.011856377842378 0
105 1 4 24.51967670322347 12.008422666094285 0
106 1 4 31.409193000613836 12.193416592066598 0
107 1 4 38.15797655358523 12.211839713857824 0
108 1 4 45.268366007090975 12.178573726024648 0
109 1 4 52.188960277607535 12.031602449973791 0
110 1 4 59.206148174895326 12.253232684085926 0
111 1 4 65.91809869201823 12.13923052893785 0
112 1 4 73.04738605307827 12.32136751286348 0
113 1 4 79.92615405793487 12.06587180008394 0
114 1 4 86.9457306662315 12.34686985869933 0
115 1 4 93.69244935733319 12.252647645173118 0
116 1 4 100.63936426077916 12.070959568813773 0
117 1 4 107.60218115858349 12.09093254980515 0
118 1 4 114.56770318213324 12.003131956753375 0
119 1 4 121.36762294499991 12.217112443639088 0
120 1 4 128.4896403310992 12.25275529077733 0
121 1 4 135.2543267783403 12.077002992025339 0
122 1 4 142.15956629345027 12.118071954132471 0
123 1 4 149.27758253364192 12.219136284394546 0
124 1 4 155.96675220733653 12.068503820268617 0
125 1 4 162.9011112348195 12.159400063017781 0
126 1 4 0.13330683223014436 14.180743720647484 0
127 1 4 7.234373050534588 14.020083638631796 0
128 1 4 13.949728372815912 14.386223625003698 0
129 1 4 21.088366406459134 14.191265534251546 0
130 1 4 27.860913977622438 14.01098184212641 0
131 1 4 35.0220926495436 14.07291321477341 0
132 1 4 41.862327949548046 14.018009807121922 0
133 1 4 48.81144689788348 14.367368198149173 0
134 1 4 55.619062871723315 14.107457722529512 0
135 1 4 62.61740017695547 14.10511955737535 0
136 1 4 69.48984806980835 14.272633484732703 0
137 1 4 76.55274954831663 14.260333050237167 0
138 1 4 83.2334687973958 14.132130101546354 0
139 1 4 90.18453059116796 14.106852503875727 0
140 1 4 97.05184319389163 14.342373736914448 0
141 1 4 104.17755746758586 14.159608167760886 0
142 1 4 111.0003773328986 14.084021511021215 0
143 1 4 117.90332943604362 14.101545386393035 0
144 1 4 124.94580325806011 14.188507167473471 0
145 1 4 131.66496149033637 14.213071371452019 0
146 1 4 138.70888237542854 14.34645353182098 0
147 1 4 145.8004719683511 14.372036695625571 0
148 1 4 152.74844858743992 14.083345327856641 0
149 1 4 159.69920853637475 14.293220206964609 0
150 1 4 166.64072230506076 14.142192063301062 0
151 1 4 0.16000400825506983 18.335895309196474 0
152 1 4 7.322905699635189 18.118664885238417 0
153 1 4 13.91208925521255 18.154299010345802 0
154 1 4 21.092687319824083 18.350609722186668 0
155 1 4 27.862394985156488 18.19674565298119 0
156 1 4 35.0264592852755 18.337569565741365 0
157 1 4 41.760423190398974 18.314461842899348 0
158 1 4 48.761792561970225 18.31189064930696 0
159 1 4 55.75446110296762 18.27673273239437 0
160 1 4 62.47394980130011 18.254104975837205 0
161 1 4 69.56078092361383 18.344161422196372 0
162 1 4 76.22761354854508 18.261222058689103 0
163 1 4 83.52352362578553 18.04358484518018 0
164 1 4 90.4108368708028 18.185452711467455 0
165 1 4 97.35924384193433 18.043497110871577 0
166 1 4 103.95000117827986 18.32522159337697 0
167 1 4 110.97599072897296 18.029807235426592 0
168 1 4 117.9681671284458 18.136895809004418 0
169 1 4 124.98224548495891 18.056581483280215 0
170 1 4 131.90990398563915 18.192953132513875 0
171 1 4 138.85241230110836 18.06128953342164 0
172 1 4 145.68306657603907 18.04712400965334 0
173 1 4 152.45412183788042 18.371379994793955 0
174 1 4 159.5739407064896 18.388867374515936 0
175 1 4 166.56100154576032 18.312627783973014 0
176 1 2 -3.295067068162938 20.057828392195766 0
177 1 4 3.7164471314357383 20.23219669553383 0
178 1 4 10.660725738174438 20.395512272466735 0
179 1 4 17.55728407385333 20.173371889108605 0
180 1 4 24.610870975733043 20.005851819784056 0
181 1 4 31.26742008241479 20.150002918902214 0
182 1 4 38.23256177916401 20.243164332764202 0
183 1 4 45.33865427651654 20.303885317351863 0
184 1 4 52.317503015299835 20.013476361020185 0
185 1 4 58.97112982364949 20.230642086327556 0
186 1 4 65.88709288165006 20.315725645187214 0
187 1 4 72.84439828641439 20.389703905456923 0
188 1 4 79.80234358867361 20.144130468205837 0
189 1 4 86.99817611288894 20.20619305891258 0
190 1 4 93.58870671953997 20.14229507313583 0
191 1 4 100.54588739937763 20.214201897983244 0
192 1 4 107.47433074521477 20.35470733397098 0
193 1 4 114.41123008985137 20.170311185454928 0
194 1 4 121.5514358095063 20.38453017361285 0
195 1 4 128.44366372022057 20.094365325513476 0
196 1 4 135.2402424191168 20.008427050982306 0
197 1 4 142.42312849562646 20.246636978525128 0
198 1 4 149.30642796632674 20.381791696942617 0
199 1 4 155.9728316473099 20.198257252492553 0
200 1 4 162.8945477876316 20.057408036121718 0
201 1 2 -3.361853155345173 24.387591072069416 0
202 1 4 3.799281707285879 24.353540838209696 0
203 1 4 10.554783246282346 24.239083428815707 0
204 1 4 17.59970775635942 24.116060839856008 0
205 1 4 24.349984422437103 24.262004279136875 0
206 1 4 31.29849466341642 24.17265842212766 0
207 1 4 38.46897189748724 24.164706979851342 0
208 1 4 45.39553949693279 24.04044671931025 0
209 1 4 52.15006248434955 24.396495310117896 0
210 1 4 59.06984808423533 24.059254038011463 0
211 1 4 65.97559178641974 24.133898487949295 0
212 1 4 72.91271782772225 24.31988719561625 0
213 1 4 79.80699667365352 24.39579637380692 0
214 1 4 86.61814829920444 24.201356507894374 0
215 1 4 93.83955815222116 24.046542414967142 0
216 1 4 100.63392469076116 24.209295380330705 0
217 1 4 107.55823448337974 24.077728075281396 0
218 1 4 114.44670891696573 24.13856237815283 0
219 1 4 121.43681482319086 24.287338743556617 0
220 1 4 128.35643706567933 24.21836560437124 0
221 1 4 135.14621827471896 24.027896798456307 0
222 1 4 142.4278826917511 24.029432540404173 0
223 1 4 149.09662003486537 24.18148698746765 0
224 1 4 156.2634981671108 24.365379535668154 0
225 1 4 162.82012312578928 24.049231048797996 0
226 1 4 0.08251295357791416 26.13739572201648 0
227 1 4 7.171725652718833 26.25728995642131 0
228 1 4 14.096376820226892 26.205448321683566 0
229 1 4 21.089387834936012 26.143545419797658 0
230 1 4 27.835908001788237 26.109772981578335 0
231 1 4 34.962768873865095 26.03081353247739 0
232 1 4 41.65993785884427 26.042420621246478 0
233 1 4 48.58723882524744 26.293462246087866 0
234 1 4 55.43976786181949 26.164251333068947 0
235 1 4 62.585413720772124 26.3388244685951 0
236 1 4 69.64435569206475 26.365546011739987 0
237 1 4 76.55355995824475 26.05688218213168 0
238 1 4 83.47574196765328 26.101071701976522 0
239 1 4 90.38139972983959 26.07498428609012 0
240 1 4 97.16725927021977 26.35403746363658 0
241 1 4 104.1123753360355 26.23432049188773 0
242 1 4 111.04964821729048 26.250679961459063 0
243 1 4 117.8277577694189 26.26955811282768 0
244 1 4 124.79018507259202 26.19017245441872 0
245 1 4 131.71627727934472 26.23509241478756 0
246 1 4 138.8157818230281 26.055738930900386 0
247 1 4 145.82548715310114 26.291251442805827 0
248 1 4 152.66957378310252 26.187073920773084 0
249 1 4 159.4384719327782 26.05751928911288 0
250 1 4 166.3990701286994 26.160176338539287 0
251 1 4 0.1118244484128427 30.03769756987812 0
252 1 4 7.078084223737966 30.276127380897368 0
253 1 4 13.915405180081653 30.03801496112875 0
254 1 4 21.061493043170884 30.337755389509663 0
255 1 4 27.8590303135954 30.193673318879334 0
256 1 4 34.9100597505773 30.127134020885038 0
257 1 4 41.58788815641837 30.205655820363006 0
258 1 4 48.54036461430368 30.36196053595243 0
259 1 4 55.570718155226366 30.107663586424867 0
260 1 4 62.401346212409514 30.298696857005996 0
261 1 4 69.5606200723922 30.235509944920782 0
262 1 4 76.60477166890362 30.377795023920225 0
263 1 4 83.15642283918372 30.039955135703902 0
264 1 4 90.30998135873081 30.114468689240645 0
265 1 4 97.21177454141346 30.201141251618683 0
266 1 4 104.07725944015712 30.153516776699664 0
267 1 4 111.21144651742348 30.129617250123257 0
268 1 4 117.89615909329824 30.068657075556473 0
269 1 4 124.7378830282588 30.043705922993794 0
270 1 4 131.8559226896757 30.344160942584306 0
271 1 4 138.6288432612515 30.248286281360627 0
272 1 4 145.8041963554265 30.25384995487552 0
273 1 4 152.55039057929872 30.120729215629623 0
274 1 4 159.51269816021818 30.112454088348418 0
275 1 4 166.5463151154137 30.019613757482592 0
276 1 2 -3.355463046013122 32.05682920644803 0
277 1 4 3.508547154530477 32.31129324275411 0
278 1 4 10.648338615577032 32.28251959521639 0
279 1 4 17.668764170049045 32.281943309382605 0
280 1 4 24.60678106535205 32.05630854493188 0
281 1 4 31.39861132643673 32.38010887201948 0
282 1 4 38.33466404998892 32.367665434945096 0
283 1 4 45.15490082209715 32.224572659660474 0
284 1 4 52.03096916747367 32.004990865962576 0
285 1 4 59.10716095057021 32.31437612800044 0
286 1 4 65.96504948710479 32.09143783184538 0
287 1 4 73.10067931670349 32.02743135439915 0
288 1 4 79.84942910355183 32.06508336047716 0
289 1 4 86.98838027835508 32.31522789750064 0
290 1 4 93.7002441338733 32.016779827431215 0
291 1 4 100.54403933982441 32.199303503765414 0
292 1 4 107.58276570404783 32.29273249178985 0
293 1 4 114.40900117198521 32.34524736410224 0
294 1 4 121.58195273987465 32.18111424248924 0
295 1 4 128.52508283539936 32.07279197009054 0
296 1 4 135.36494445914184 32.16864432579305 0
297 1 4 142.31018333136905 32.311916354669684 0
298 1 4 149.21919933391968 32.317333914693826 0
299 1 4 156.23306373416645 32.3107675268567 0
300 1 4 162.93134050321035 32.09268190299597 0
301 1 2 -3.131523851115179 36.36315455294926 0
302 1 4 3.7715607364129413 36.07762021222081 0
303 1 4 10.57871222496013 36.34504454473853 0
304 1 4 17.37795190523253 36.327230666606525 0
305 1 4 24.472519656219077 36.094533359419266 0
306 1 4 31.27953740201975 36.328670715070096 0
307 1 4 38.35300745246642 36.106484152419775 0
308 1 4 45.25504038473587 36.282012866504985 0
309 1 4 52.26565296072064 36.33328952262119 0
310 1 4 59.243547276057335 36.11436276004092 0
311 1 4 66.16323081695772 36.2938323097797 0
312 1 4 72.8281675138099 36.197209201568214 0
313 1 4 80.03351892679925 36.3665209631385 0
314 1 4 86.81821890229249 36.14447847925882 0
315 1 4 93.81149868290731 36.18485810714601 0
316 1 4 100.6997337744679 36.350478904515896 0
317 1 4 107.43396441285915 36.05319337854653 0
318 1 4 114.59771355724888 36.25352412297789 0
319 1 4 121.42435866912997 36.250336346869396 0
320 1 4 128.40311617865896 36.15153525211651 0
321 1 4 135.31562490913555 36.08348788060148 0
322 1 4 142.3141971578587 36.27844321541576 0
323 1 4 149.1551980077325 36.370706760577576 0
324 1 4 155.9380456482972 36.10527987487391 0
325 1 4 163.10949646629578 36.140330833821544 0
326 1 4 0.07837338370097796 38.01783612763675 0
327 1 4 7.185562356173757 38.22653243361855 0
328 1 4 13.862671927596061 38.32734704512899 0
329 1 4 21.057842341465857 38.24980980521648 0
330 1 4 28.104330202590027 38.25412187878391 0
331 1 4 35.02570888101871 38.10164338786334 0
332 1 4 41.887892603687376 38.25777021511471 0
333 1 4 48.63037462153598 38.056470840600745 0
334 1 4 55.74209617610684 38.15571481753334 0
335 1 4 62.623896639222075 38.11260302532973 0
336 1 4 69.38418715189958 38.271173414880884 0
337 1 4 76.2822358157534 38.02618190048061 0
338 1 4 83.46524788044995 38.279188376412485 0
339 1 4 90.10319052864183 38.251983966942475 0
340 1 4 97.05786154886627 38.30256269963089 0
341 1 4 104.29344362732985 38.228250856054466 0
342 1 4 111.16712066456294 38.1931565096596 0
343 1 4 117.95694326450055 38.16590251590112 0
344 1 4 124.95176254791625 38.24662152626036 0
345 1 4 131.70712646921717 38.06415328295446 0
346 1 4 138.73224000007497 38.322089181960955 0
347 1 4 145.7221177363613 38.00776567654546 0
348 1 4 152.49419382547654 38.13200183635978 0
349 1 4 159.54896855742192 38.03604738211847 0
350 1 4 166.6306033952187 38.021459906873034 0
351 1 4 0.12903261580547826 42.04255184911597 0
352 1 4 7.3108320189605225 42.25775670276202 0
353 1 4 14.123821093825121 42.35721074683239 0
354 1 4 20.923314624288334 42.25721695642755 0
355 1 4 28.082457522777116 42.25240294670329 0
356 1 4 34.70201898806802 42.146083076286175 0
357 1 4 41.86349338282555 42.21283472920269 0
358 1 4 48.79785533191532 42.162684452086864 0
359 1 4 55.55017559416785 42.26164301139653 0
360 1 4 62.39721053222506 42.17425048611194 0
361 1 4 69.31524699117267 42.00491579982441 0
362 1 4 76.22492046831655 42.245256076458574 0
363 1 4 83.46745552276585 42.32525114115806 0
364 1 4 90.17913376024363 42.05156077172881 0
365 1 4 97.22010569653365 42.382898528502594 0
366 1 4 103.94332839641444 42.268251077056 0
367 1 4 111.18047208902857 42.26785901600256 0
368 1 4 117.89260749242234 42.342890890806586 0
369 1 4 125.05271310275802 42.12879685488532 0
370 1 4 131.85489472998728 42.31150581859735 0
371 1 4 138.60858073466497 42.22513284631627 0
372 1 4 145.51700418455752 42.044180351202925 0
373 1 4 152.56669475803542 42.17220519137496 0
374 1 4 159.49579802013588 42.01136404448349 0
375 1 4 166.45481547946883 42.30285781669274 0
376 1 2 -3.089134201999267 44.32591410955767 0
377 1 4 3.618805688068433 44.034863430488976 0
378 1 4 10.414930405758737 44.11865728790384 0
379 1 4 17.423348536478702 44.245248194236694 0
380 1 4 24.49529422408112 44.03171694703283 0
381 1 4 31.38402212600879 44.28091388231285 0
382 1 4 38.45889696805416 44.18017914988774 0
383 1 4 45.26753064118305 44.38467413862774 0
384 1 4 51.97950360592508 44.33194848034299 0
385 1 4 58.900832803357275 44.2091394949568 0
386 1 4 66.05780026359344 44.27490497296827 0
387 1 4 72.78104965642706 44.15409716943056 0
388 1 4 79.82288658238942 44.235149013319266 0
389 1 4 86.80146091867641 44.246770187645424 0
390 1 4 93.85840307226049 44.373291274586855 0
391 1 4 100.6137866707208 44.35037346397403 0
392 1 4 107.45776151154536 44.06925892046571 0
393 1 4 114.42755324177195 44.02424540383829 0
394 1 4 121.41471086332649 44.22760611153316 0
395 1 4 128.468163580332 44.08128211672717 0
396 1 4 135.1286194455659 44.30539650931023 0
397 1 4 142.26060479453542 44.099599978233236 0
398 1 4 149.244429274623 44.127561702947645 0
399 1 4 155.88552320781693 44.32991071979985 0
400 1 4 163.09871971602269 44.15764601399299 0
401 1 2 -3.288813528051744 48.17167389603462 0
402 1 4 3.652691324961038 48.05876497076236 0
403 1 4 10.627129867846378 48.16396084415104 0
404 1 4 17.537131207279803 48.290516261240704 0
405 1 4 24.30682907476211 48.05620651716474 0
406 1 4 31.44532173242499 48.251393594547544 0
407 1 4 38.13313428029048 48.264468125569685 0
408 1 4 45.42990756636452 48.36064743056729 0
409 1 4 52.103341040000664 48.38675415588825 0
410 1 4 59.25838809151688 48.370826748981315 0
411 1 4 65.98157602657244 48.390149945127945 0
412 1 4 72.94600765943896 48.096443102667386 0
413 1 4 79.70690210633147 48.34994298447958 0
414 1 4 86.97656590245387 48.186004138486396 0
415 1 4 93.91731830525485 48.24388809843659 0
416 1 4 100.5342485119728 48.35825494621738 0
417 1 4 107.68480805708107 48.3863883612137 0
418 1 4 114.39887348843156 48.21652134920516 0
419 1 4 121.34542295419223 48.25814361889297 0
420 1 4 128.1909757048359 48.074700678298726 0
421 1 4 135.15052576043357 48.143937761636245 0
422 1 4 142.11907634670237 48.29334760856026 0
423 1 4 149.00681865438492 48.062043633694806 0
424 1 4 155.91682383240698 48.36866191500647 0
425 1 4 162.97541176602903 48.22076562995316 0
426 1 4 0.016407224708546008 50.05274274304605 0
427 1 4 7.045385937509406 50.27821519678855 0
428 1 4 14.140272534036527 50.37643986986636 0
429 1 4 21.002282542177614 50.390381081217676 0
430 1 4 27.946100314524433 50.08518404532714 0
431 1 4 34.70658016392421 50.178314928666886 0
432 1 4 41.57680714136842 50.07795591801972 0
433 1 4 48.685558303646815 50.37086847561136 0
434 1 4 55.748072552881204 50.30988671520954 0
435 1 4 62.580547218761964 50.03063656677544 0
436 1 4 69.6703863602258 50.304527204975585 0
437 1 4 76.52809683716839 50.18609815209684 0
438 1 4 83.2353622407964 50.38647213941519 0
439 1 4 90.25843632656549 50.37287145072673 0
440 1 4 97.08698883090238 50.300552210180854 0
441 1 4 104.2278990284048 50.11833303613621 0
442 1 4 111.23320388263937 50.04826905319045 0
443 1 4 118.14750469029883 50.17111495781822 0
444 1 4 125.02220159180526 50.276487990913886 0
445 1 4 131.65906147533747 50.114980498166105 0
446 1 4 138.70757166892756 50.16089540902633 0
447 1 4 145.52659642142902 50.056258570079144 0
448 1 4 152.65253810057746 50.210015879869864 0
449 1 4 159.40631695399603 50.281886773031836 0
450 1 4 166.37539767439233 50.22124967156629 0
451 1 4 0.1303196754634266 54.37916460282232 0
452 1 4 6.929422590670229 54.39729166095721 0
453 1 4 13.925888674407704 54.13545779763777 0
454 1 4 20.864859243131864 54.31717172137213 0
455 1 4 27.736442090044648 54.29011899425621 0
456 1 4 34.780394306156396 54.079590511951636 0
457 1 4 41.7686990805855 54.34426077589826 0
458 1 4 48.78134597856015 54.30821544849671 0
459 1 4 55.743586241739855 54.38239477527162 0
460 1 4 62.66667692583536 54.179449284178126 0
461 1 4 69.29323986541742 54.19941872649964 0
462 1 4 76.30020845758476 54.33615103028038 0
463 1 4 83.42884304220104 54.068950396270765 0
464 1 4 90.21321159426259 54.30461044402686 0
465 1 4 97.38760053260536 54.19788573295467 0
466 1 4 104.2543600852861 54.38569797800501 0
467 1 4 110.983121687118 54.239009113568116 0
468 1 4 118.09354225875953 54.11859517551821 0
469 1 4 124.86919863532964 54.04565836076775 0
470 1 4 131.80350421374487 54.383765097491995 0
471 1 4 138.59309760005553 54.19533071809435 0
472 1 4 145.84439403532957 54.284976667755465 0
473 1 4 152.65909859685928 54.13877566484794 0
474 1 4 159.5435134455834 54.381337334655726 0
475 1 4 166.6765580272173 54.10511273776365 0
476 1 2 -3.2863398871896092 56.01896640435868 0
477 1 4 3.652257916063645 56.02908713324576 0
478 1 4 10.542667061742836 56.375110868691046 0
479 1 4 17.367367951617585 56.34591648626147 0
480 1 4 24.350061999758005 56.20655821818118 0
481 1 4 31.301242401535802 56.251393322765445 0
482 1 4 38.15035765447829 56.24892530020075 0
483 1 4 45.22809166465994 56.22484720879797 0
484 1 4 52.345902939928855 56.0489737930735 0
485 1 4 58.959686168476075 56.09268706732994 0
486 1 4 66.05848502516585 56.049451298463794 0
487 1 4 72.75066802641872 56.29015891163679 0
488 1 4 79.88370805057895 56.348435900060245 0
489 1 4 86.77052991278279 56.34030449276009 0
490 1 4 93.65257889028668 56.19620590205748 0
491 1 4 100.75398608924284 56.214858021912825 0
492 1 4 107.54151567880048 56.200512027920716 0
493 1 4 114.31549258605125 56.022599550240145 0
494 1 4 121.57764092641415 56.28757194166246 0
495 1 4 128.40220977116078 56.16867073384507 0
496 1 4 135.24805557546608 56.23109775671505 0
497 1 4 142.23221134119902 56.33054847408675 0
498 1 4 149.09546017156197 56.04564248143036 0
499 1 4 156.1609891151826 56.20958749728485 0
500 1 4 163.0950409670701 56.37524346521528 0
501 1 2 -3.103360030888237 60.35764246090026 0
502 1 4 3.5139584360144425 60.00090850288354 0
503 1 4 10.643191079744184 60.21354767864434 0
504 1 4 17.536040890735865 60.34077747370828 0
505 1 4 24.318312421598943 60.35765104935914 0
506 1 4 31.399232523511472 60.206043359270325 0
507 1 4 38.22087349827902 60.211747821218985 0
508 1 4 45.42494144282596 60.15986385123296 0
509 1 4 52.08469764228257 60.3904288559903 0
510 1 4 58.992511629356336 60.284654231805675 0
511 1 4 66.20288362113787 60.30537384721828 0
512 1 4 72.8440435504194 60.208550781588066 0
513 1 4 79.76758747054727 60.054006668948254 0
514 1 4 86.97053251267032 60.203055694907356 0
515 1 4 93.8920764947094 60.22720571793676 0
516 1 4 100.71996330274442 60.369068804632576 0
517 1 4 107.57606171808493 60.03029012034523 0
518 1 4 114.66467124516068 60.35024194584739 0
519 1 4 121.4946291296705 60.090606765016744 0
520 1 4 128.47543798739645 60.20369086471179 0
521 1 4 135.42873764204182 60.15408577593312 0
522 1 4 142.33543976703538 60.11333284530988 0
523 1 4 149.2747792127299 60.39928093315835 0
524 1 4 156.0089821612396 60.08541552146418 0
525 1 4 162.8175790909718 60.34347940154618 0
526 1 4 0.24349740637729833 62.3410045117897 0
527 1 4 7.24184113364483 62.08775400938271 0
528 1 4 13.98526152961762 62.25360792868166 0
529 1 4 21.13249281721437 62.19069795790149 0
530 1 4 28.042039726838883 62.30183246764074 0
531 1 4 34.804649035245035 62.02362870551399 0
532 1 4 41.82942952604485 62.08573494168505 0
533 1 4 48.89535394544322 62.04294219704395 0
534 1 4 55.57486481316835 62.05731148673075 0
535 1 4 62.70223005755026 62.28714467109437 0
536 1 4 69.58073356120231 62.15479558039186 0
537 1 4 76.32318684286659 62.29941321726349 0
538 1 4 83.40186649720329 62.15910144479929 0
539 1 4 90.34711058450999 62.310237700324585 0
540 1 4 97.33294396740543 62.262931259756336 0
541 1 4 104.1480153838124 62.06348217392091 0
542 1 4 111.04873575007429 62.05901861369445 0
543 1 4 117.8607531380482 62.390859721147685 0
544 1 4 125.00488774659232 62.07287925186063 0
545 1 4 131.649734470554 62.278637071383315 0
546 1 4 138.59185183911057 62.14648412505263 0
547 1 4 145.49529624859872 62.18983921505189 0
548 1 4 152.77710528981837 62.0817956519091 0
549 1 4 159.6152614457422 62.137663218239496 0
550 1 4 166.47353200299332 62.00714275591698 0
551 1 4 0.3507181250446438 66.0087815928357 0
552 1 4 6.959730140713997 66.32486444741481 0
553 1 4 13.900591392972819 66.19677307347487 0
554 1 4 21.037556243689174 66.1785363457309 0
555 1 4 27.755733358557904 66.31844701860912 0
556 1 4 34.97020793311126 66.15020167330458 0
557 1 4 41.85710245989051 66.22399568810977 0
558 1 4 48.52156778082385 66.31436378842652 0
559 1 4 55.71578900786565 66.37961373425125 0
560 1 4 62.4138725129262 66.213386935442 0
561 1 4 69.68191073630618 66.20333045645134 0
562 1 4 76.2804504236384 66.296799094517 0
563 1 4 83.3852173603921 66.17659087293883 0
564 1 4 90.30050416551671 66.03738431634676 0
565 1 4 97.25415585786507 66.21843708018308 0
566 1 4 104.1829800925267 66.23235438011176 0
567 1 4 111.03031831927794 66.04693306093117 0
568 1 4 118.12102030643186 66.3892828125638 0
569 1 4 124.82478175457283 66.1833150513566 0
570 1 4 131.77562754087572 66.20670168761757 0
571 1 4 138.64170358226096 66.08771485737067 0
572 1 4 145.56794798747393 66.23743142930964 0
573 1 4 152.81236383303093 66.15705616206071 0
574 1 4 159.35678412868307 66.36732694874397 0
575 1 4 166.63838477767732 66.22091461752349 0
576 1 2 -3.283640450730862 68.38990949446978 0
577 1 4 3.842563353902588 68.16380115105918 0
578 1 4 10.491427651286749 68.0045213968967 0
579 1 4 17.555541035367746 68.17124671023393 0
580 1 4 24.35918605916233 68.35694038183108 0
581 1 4 31.2818448389916 68.3600918142135 0
582 1 4 38.230336256852915 68.01805818673057 0
583 1 4 45.13463402866619 68.06238261333057 0
584 1 4 52.357656558908765 68.09899925771491 0
585 1 4 59.1290160476301 68.03222460206204 0
586 1 4 66.2171793548703 68.22441613655148 0
587 1 4 73.14051582047566 68.34619728481418 0
588 1 4 79.7869925023239 68.13815129131176 0
589 1 4 86.73606280647033 68.06191828824201 0
590 1 4 93.55522316057629 68.2682719013202 0
591 1 4 100.75063057187612 68.0609203136872 0
592 1 4 107.39584054384504 68.332331351987 0
593 1 4 114.68267264868297 68.12986521679056 0
594 1 4 121.54769759992048 68.3438648608746 0
595 1 4 128.3133714650587 68.18566903096594 0
596 1 4 135.3727183798463 68.35980895413434 0
597 1 4 142.1033065101591 68.10154397973838 0
598 1 4 149.2554917148577 68.00370334321693 0
599 1 4 155.88720214942458 68.32866801156439 0
600 1 4 162.962638229134 68.30321208471764 0
601 1 2 -3.2706555970901556 72.0344845382809 0
602 1 4 3.7412397288784778 72.11746739918242 0
603 1 4 10.73175955931823 72.347557708084 0
604 1 4 17.499815363650885 72.0135551561571 0
605 1 4 24.554851497355113 72.1215538965721 0
606 1 4 31.37554076606561 72.32330705506851 0
607 1 4 38.249259314809066 72.34165362438743 0
608 1 4 45.362376914738576 72.35632363037547 0
609 1 4 52.24534483269796 72.37090745839345 0
610 1 4 59.26157250383967 72.07567778004685 0