
14309 atoms
14896 bonds
16659 angles
17 atom types
5 bond types
12 angle types

-5.680607966083864 171.52447279080386 xlo xhi
-2.0 148.0 ylo yhi
-4 4 zlo zhi


Masses

1 0.00021720963773648935
2 0.0003751802833630271
3 0.0005923899210995163
4 0.0005726435903961992
5 0.0004344192754729787
6 0.0007108679053194197
7 0.0009873165351658606
8 0.0007898532281326886
9 0.0009083312123525917
10 0.0006318825825061508
11 0.0004936582675829303
12 0.0006713752439127852
13 0.0004344192754729787
14 0.0003159412912530754
15 0.000552897259692882
16 0.0006318825825061508
17 0.0007108679053194197

Pair Coeffs

1 0.40509979849834776 0.44544935907016964 0.5
2 0.40509979849834776 0.44544935907016964 0.5
3 0.40509979849834776 0.44544935907016964 0.5
4 0.40509979849834776 0.44544935907016964 0.5
5 0.40509979849834776 0.44544935907016964 0.5
6 0.40509979849834776 0.44544935907016964 0.5
7 0.40509979849834776 0.44544935907016964 0.5
8 0.40509979849834776 0.44544935907016964 0.5
9 0.40509979849834776 0.44544935907016964 0.5
10 0.40509979849834776 0.44544935907016964 0.5
11 0.40509979849834776 0.44544935907016964 0.5
12 0.40509979849834776 0.44544935907016964 0.5
13 0.40509979849834776 0.44544935907016964 0.5
14 0.40509979849834776 0.44544935907016964 0.5
15 0.40509979849834776 0.44544935907016964 0.5
16 0.40509979849834776 0.44544935907016964 0.5
17 0.40509979849834776 0.44544935907016964 0.5

Bond Coeffs

1 86.88385509459575 0.5
2 63.18825825061508 0.5
3 110.57945193857638 0.5
4 126.37651650123016 0.5
5 142.17358106388394 0.5

Angle Coeffs

1 5.465576807183542 180
2 2.102460800359108 180
3 11.267875851924595 180
4 16.819686402872865 180
5 23.94834255409047 180
6 3.0367610692110407 120
7 13.495093417977534 120
8 8.899970386568315 120
9 5.465576807183542 120
10 7.360757182287924 120
11 19.760759690079485 120
12 16.819686402872865 120

Atoms

1 1 1 -3.155645033279149 0.10133878447374373 0
2 1 2 3.6360928593812236 0.1584305420459122 0
3 1 3 10.6117238732643 0.04242376471376668 0
4 1 4 17.340077235318645 0.23961714086019878 0
5 1 4 24.283090247895746 0.3973052541543668 0
6 1 3 31.56214274192177 0.2395292729821791 0
7 1 2 38.417550989333044 0.24538259567948462 0
8 1 5 45.36927778721086 0.16135532636278757 0
9 1 5 52.11318788467713 0.09156373090812027 0
10 1 5 59.28509717711119 0.19315304479159856 0
11 1 2 65.83605002329821 0.17434930851683259 0
12 1 3 72.80166901255821 0.10650190111293578 0
13 1 4 79.99326785319201 0.016885899103688918 0
14 1 4 86.69963632062216 0.16369162488905384 0
15 1 3 93.64874731505779 0.3190292218019683 0
16 1 2 100.76528189052839 0.03720025372013729 0
17 1 5 107.6275561056543 0.08849189021865929 0
18 1 5 114.36717384024954 0.339450530856543 0
19 1 5 121.35214494898995 0.1202239110869261 0
20 1 2 128.46359135278044 0.3805165204099328 0
21 1 3 135.13334856985708 0.270916559648442 0
22 1 4 142.10154004117945 0.22847118718774087 0
23 1 4 148.95777983116287 0.06999088141158172 0
24 1 3 156.20912620067486 0.3548448125538224 0
25 1 2 162.84806438129962 0.18405021991315876 0
26 1 3 0.03595566610777303 2.122621364733145 0
27 1 6 7.041664948817217 2.122517750407394 0
28 1 7 13.868763034355696 2.0538251741478404 0
29 1 8 20.95453059020815 2.1720779430831043 0
30 1 7 27.962297774477523 2.061411828884448 0
31 1 6 34.878045179847476 2.209314564458642 0
32 1 3 41.67506498636311 2.390214592450571 0
33 1 6 48.76716567789557 2.150907388785172 0
34 1 6 55.66689599729437 2.2847703219764797 0
35 1 3 62.433865718381256 2.0530290670694464 0
36 1 6 69.4758536208136 2.2053180245205484 0
37 1 7 76.36593440187774 2.244796255956568 0
38 1 8 83.43198710234057 2.2273209665682145 0
39 1 7 90.07292681550119 2.2448042276742686 0
40 1 6 97.19512362457748 2.0457961753458513 0
41 1 3 104.19486630000239 2.162952697933329 0
42 1 6 111.06499841392946 2.152743253647908 0
43 1 6 118.14441480987047 2.0371708354909908 0
44 1 3 125.0119524554761 2.1502124846729895 0
45 1 6 132.02568473025664 2.282580353614375 0
46 1 7 138.7163572977659 2.2368382720645124 0
47 1 8 145.69989644305656 2.2303400356316647 0
48 1 7 152.62718728911895 2.160413656648521 0
49 1 6 159.3526535915472 2.2779526366265297 0
50 1 3 166.59335904516593 2.057861880158341 0
51 1 6 0.39784471092318635 6.122010713491498 0
52 1 3 7.059691016543227 6.0407971790775425 0
53 1 9 14.080379680445859 6.092368828626099 0
54 1 7 21.02775350430913 6.341371385037037 0
55 1 9 27.89014260667944 6.39902029413697 0
56 1 3 34.76311192600866 6.207723476027905 0
57 1 6 41.85982126109046 6.18017803052081 0
58 1 9 48.7456455906378 6.2085259750195965 0
59 1 9 55.53084321143 6.136191673759544 0
60 1 6 62.653931233221385 6.3095714878882045 0
61 1 3 69.50249600783732 6.294265779283525 0
62 1 9 76.56060889943696 6.111396256936527 0
63 1 7 83.21456958785411 6.247027950295072 0
64 1 9 90.42464023232736 6.1375920549743155 0
65 1 3 97.06051642078289 6.26132006470405 0
66 1 6 104.04096434840974 6.11146574490328 0
67 1 9 111.15976094754821 6.3037762157502275 0
68 1 9 117.80020371446183 6.129297599972915 0
69 1 6 124.92337779789112 6.257363482413794 0
70 1 3 131.71417760800352 6.098268153084612 0
71 1 9 138.8424409350926 6.025942241565572 0
72 1 7 145.52419707045712 6.024590953285047 0
73 1 9 152.65738460509496 6.274882602177118 0
74 1 3 159.64021431651477 6.093829195861263 0
75 1 6 166.58088792253002 6.279121656047365 0
76 1 3 -3.4423667345809807 8.06815658501544 0
77 1 3 3.626732386207574 8.21115363581067 0
78 1 6 10.59752606400511 8.304972969856417 0
79 1 9 17.57167922196718 8.042997266714353 0
80 1 9 24.418421939234314 8.212527122089869 0
81 1 6 31.415502533171693 8.045331928943215 0
82 1 3 38.42170229131394 8.024050954446205 0
83 1 9 45.08947926306495 8.152796568435884 0
84 1 7 52.35891032594938 8.056047861986144 0
85 1 9 59.17865772398923 8.086085637136055 0
86 1 3 65.95727850751713 8.176685797735068 0
87 1 6 72.8702818151662 8.360593142943529 0
88 1 9 79.79954412602422 8.037065482337745 0
89 1 9 86.96099786262441 8.161292118829087 0
90 1 6 93.80628363293103 8.004249175437945 0
91 1 3 100.77775246388356 8.019995397056372 0
92 1 9 107.48184003999431 8.067395954304589 0
93 1 7 114.48991506586444 8.12535401054862 0
94 1 9 121.50610119660564 8.044502776880552 0
95 1 3 128.4745203896467 8.115246290841378 0
96 1 6 135.3477819508263 8.396439402319727 0
97 1 9 142.26604384027837 8.15572124470021 0
98 1 9 149.34110075652868 8.10741251595876 0
99 1 6 156.17473228222906 8.373793793451291 0
100 1 3 162.81857717994825 8.38380229619498 0
101 1 10 -3.4256119359951644 12.15175190374113 0
102 1 6 3.822191453147406 12.098798620188495 0
103 1 3 10.681884434725038 12.260565787176512 0
104 1 6 17.36171829446071 12.125177593633603 0
105 1 6 24.250327310254143 12.064098983623435 0
106 1 3 31.461837215817766 12.164231362816231 0
107 1 6 38.34351393133153 12.31415593456608 0
108 1 7 45.4145376627091 12.26563181526845 0
109 1 8 52.21718192911219 12.245178839910498 0
110 1 7 59.148898302961456 12.345545271080793 0
111 1 6 65.93673983674253 12.336008112666654 0
112 1 3 73.03046261155659 12.017413781693467 0
113 1 6 79.7837297169679 12.089440935949655 0
114 1 6 86.61545895600501 12.165625879327473 0
115 1 3 93.72540649791017 12.302897729672326 0
116 1 6 100.72557762271664 12.063782684839705 0
117 1 7 107.4328422984969 12.088674789593314 0
118 1 8 114.42484292121364 12.012548188171934 0
119 1 7 121.52785862752953 12.026709721913187 0
120 1 6 128.20504017816384 12.262834921702776 0
121 1 3 135.31463207202896 12.192424760996252 0
122 1 6 142.41249218912074 12.36390420103626 0
123 1 6 149.35523214422383 12.085078774806819 0
124 1 3 156.22191733205335 12.293426417783191 0
125 1 6 163.14892273671276 12.244314876570211 0
126 1 9 0.04410125507798162 14.11283112924097 0
127 1 3 7.2160243184417885 14.340270075464613 0
128 1 3 14.180783074350895 14.318866286802145 0
129 1 3 20.889815126912993 14.035548193595698 0
130 1 3 28.046573659793307 14.348851260176783 0
131 1 3 34.896235125485845 14.096160534622573 0
132 1 9 41.73151950305695 14.315664664519506 0
133 1 8 48.64356469250684 14.316987516497422 0
134 1 8 55.55445416462882 14.13924396275337 0
135 1 9 62.71158404060763 14.152725099178129 0
136 1 3 69.62269286173608 14.370750484696774 0
137 1 3 76.48448631623693 14.009301386032982 0
138 1 3 83.31407804492267 14.003737639525363 0
139 1 3 90.3964795127836 14.008287349315083 0
140 1 3 97.32782231583795 14.278631679753381 0
141 1 9 104.16922010137581 14.139088379512376 0
142 1 8 110.89705692734508 14.397982977602474 0
143 1 8 117.85612278025062 14.000766144859467 0
144 1 9 124.7261277462349 14.317175916403697 0
145 1 3 132.03261665150941 14.105289897147578 0
146 1 3 138.83816038192793 14.074664577895911 0
147 1 3 145.8120968476771 14.017477862316953 0
148 1 3 152.70622652765596 14.375848244769971 0
149 1 3 159.5757464118937 14.207061293524891 0
150 1 9 166.3485604144608 14.049537858683749 0
151 1 9 0.16484154247407723 18.289748388801254 0
152 1 3 6.92827247316339 18.26926652826233 0
153 1 3 14.240854079370994 18.364930983072416 0
154 1 3 20.91624075938803 18.3739134662983 0
155 1 3 27.882583792968827 18.008452070638405 0
156 1 3 34.79899307498165 18.009682986036946 0
157 1 9 41.69937840504294 18.380965844560883 0
158 1 8 48.59144389816716 18.191554040188258 0
159 1 8 55.55791799249205 18.359701848772573 0
160 1 9 62.68692083782029 18.24747874379362 0
161 1 3 69.29465739814844 18.060864492002647 0
162 1 3 76.52150611770622 18.35009429256796 0
163 1 3 83.37969246084766 18.130451925531133 0
164 1 3 90.31163709433004 18.04536472088274 0
165 1 3 97.0953483573785 18.010789291626242 0
166 1 9 103.93733783056894 18.19814879384099 0
167 1 8 111.24799912437918 18.216446091239117 0
168 1 8 118.03411281166439 18.397678961635435 0
169 1 9 125.06268917247858 18.319244661508066 0
170 1 3 131.70837958487084 18.154872071478398 0
171 1 3 138.63805829194993 18.05217459861611 0
172 1 3 145.8740439751639 18.32061857579525 0
173 1 3 152.7787254121949 18.36275769777652 0
174 1 3 159.55324032891374 18.11839700301676 0
175 1 9 166.3567899716557 18.26532705185829 0
176 1 10 -3.099562600053367 20.079372795947382 0
177 1 6 3.7166222256335826 20.388012628080205 0
178 1 3 10.536797100748405 20.29148063600707 0
179 1 6 17.344237393073136 20.254883203574312 0
180 1 6 24.345002328894456 20.18761001859411 0
181 1 3 31.236794864216858 20.092004936769598 0
182 1 6 38.17674070839006 20.082126822381337 0
183 1 7 45.279665818359256 20.18519869476721 0
184 1 8 52.304464293719285 20.241809881796833 0
185 1 7 59.11747196392559 20.110207819966252 0
186 1 6 66.07320553937372 20.304733927885287 0
187 1 3 72.74926731459553 20.304893783667584 0
188 1 6 79.88125446914539 20.075015248116546 0
189 1 6 86.90043162914414 20.145429495289942 0
190 1 3 93.87377387177027 20.092246525162214 0
191 1 6 100.60893736268065 20.3464299837696 0
192 1 7 107.3989260043365 20.327500462220737 0
193 1 8 114.39971474603536 20.354924058873475 0
194 1 7 121.40537520215666 20.231229528710326 0
195 1 6 128.29541290930285 20.245762079012042 0
196 1 3 135.21151041577866 20.25057283581705 0
197 1 6 142.10787192514255 20.16494585627639 0
198 1 6 149.25636439737144 20.053321974997743 0
199 1 3 156.17371587875616 20.077331094761607 0
200 1 6 163.0393094901773 20.38016269277676 0
201 1 3 -3.4318523849262763 24.27609125843571 0
202 1 3 3.603057674370148 24.256068727437068 0
203 1 6 10.643167476812398 24.15081651874384 0
204 1 9 17.604615963214783 24.010194691049087 0
205 1 9 24.620730226163822 24.219343759307304 0
206 1 6 31.529907020977408 24.157876114288904 0
207 1 3 38.48090709817576 24.24801681957126 0
208 1 9 45.3079783659291 24.162150818310874 0
209 1 7 51.98328203481922 24.1449562725268 0
210 1 9 59.058718150670764 24.278234179857673 0
211 1 3 65.89177771242602 24.168521290793176 0
212 1 6 72.82881558717608 24.128585377590063 0
213 1 9 79.81649092968559 24.20648797239234 0
214 1 9 86.78542533516051 24.212094726110266 0
215 1 6 93.90711615342356 24.335486817653802 0
216 1 3 100.85863680479903 24.08639473035051 0
217 1 9 107.63481862189009 24.24185369377692 0
218 1 7 114.34910295431227 24.019178139505573 0
219 1 9 121.6213805379322 24.111600485330534 0
220 1 3 128.46373733468033 24.395175409125343 0
221 1 6 135.2513956987075 24.283918807162944 0
222 1 9 142.08777557421627 24.259022396065504 0
223 1 9 149.15442086110943 24.187950855084953 0
224 1 6 156.05963404538363 24.23713522650479 0
225 1 3 163.2028271198911 24.319760291160815 0
226 1 6 0.16119704629462905 26.367952781062616 0
227 1 3 6.96304984313006 26.162044768836797 0
228 1 9 13.903821317658599 26.30836491123621 0
229 1 7 20.931600674942572 26.200537309286624 0
230 1 9 27.799027246312903 26.217351476149073 0
231 1 3 34.788923262962896 26.365003561754865 0
232 1 6 41.84798648936455 26.13509620443629 0
233 1 9 48.80439746465928 26.3873903999604 0
234 1 9 55.75076591553542 26.223538015597892 0
235 1 6 62.44789535798568 26.226718760726264 0
236 1 3 69.34592213768532 26.327550872521257 0
237 1 9 76.30628760801179 26.283521294867395 0
238 1 7 83.26274268728842 26.27424212088153 0
239 1 9 90.19695599297405 26.20396997421881 0
240 1 3 97.14700743976381 26.21234205510467 0
241 1 6 104.13054393576508 26.00016388569364 0
242 1 9 110.94251047236634 26.01685701214278 0
243 1 9 118.15653689432088 26.231641654262713 0
244 1 6 124.86423362586554 26.34378242573743 0
245 1 3 131.8463790823131 26.12399948903179 0
246 1 9 138.7275389065918 26.070722450230953 0
247 1 7 145.52122008625233 26.384430170408628 0
248 1 9 152.5043390302874 26.173330112265 0
249 1 3 159.7049200327431 26.17067263193312 0
250 1 6 166.54268313335473 26.112145831231935 0
251 1 3 0.017662793329990035 30.146034653267634 0
252 1 6 7.236538712217585 30.245273285888164 0
253 1 7 13.98596914493537 30.118134967151676 0
254 1 8 20.991289333666987 30.025862577026764 0
255 1 7 28.103318202442345 30.253493641839356 0
256 1 6 34.889138506299886 30.196844445845823 0
257 1 3 41.589741299610175 30.042467482447446 0
258 1 6 48.837823490691555 30.05808019205248 0
259 1 6 55.807384579858606 30.398130216831305 0
260 1 3 62.400037194580214 30.352820618643875 0
261 1 6 69.40117979716864 30.2651076179164 0
262 1 7 76.33198939576451 30.01063265790991 0
263 1 8 83.32919894660154 30.062139242870728 0
264 1 7 90.2504178806365 30.381809595299718 0
265 1 6 96.99720612923299 30.348577296796094 0
266 1 3 104.21441449557531 30.23299535123357 0
267 1 6 110.94124605720883 30.16659336378874 0
268 1 6 117.94500552061191 30.261893059160197 0
269 1 3 124.89316380784581 30.170284119166826 0
270 1 6 131.68754200095492 30.362927893562013 0
271 1 7 138.73613324809065 30.158443137585856 0
272 1 8 145.8452157192944 30.15082203864497 0
273 1 7 152.6663235896466 30.080651048178137 0
274 1 6 159.3575445472667 30.006170817645682 0
275 1 3 166.5335324377087 30.297576888414984 0
276 1 2 -3.096162366739419 32.190890248650724 0
277 1 3 3.6200428863372958 32.32105884133477 0
278 1 9 10.518332628439259 32.167829752224385 0
279 1 8 17.655987001106187 32.02567185450496 0
280 1 8 24.368736185871228 32.26784109769306 0
281 1 9 31.181593933118982 32.33988870694048 0
282 1 3 38.2832500324775 32.128924449142886 0
283 1 3 45.17399693536413 32.2232172952646 0
284 1 3 52.24198647186579 32.26320669726371 0
285 1 3 59.06139597850235 32.142659305362756 0
286 1 3 65.83602185487166 32.051042961943466 0
287 1 9 73.05303178959655 32.36058530231802 0
288 1 8 79.87001960712495 32.01743645560479 0
289 1 8 87.00166809222767 32.32981846422669 0
290 1 9 93.90914507094658 32.133328503991095 0
291 1 3 100.76484678577121 32.03597288669244 0
292 1 3 107.6602490246636 32.01151462598223 0
293 1 3 114.46338787683705 32.34188646450645 0
294 1 3 121.37726961298645 32.28071161751249 0
295 1 3 128.1932670066927 32.16931822242808 0
296 1 9 135.17381467478234 32.061990606661595 0
297 1 8 142.13242176022706 32.02211105131493 0
298 1 8 149.20957535724975 32.08107625737937 0
299 1 9 156.02437112899622 32.0932660842331 0
300 1 3 162.94212180003882 32.066194673211534 0
301 1 2 -3.3732715979243273 36.36645693992669 0
302 1 3 3.6363153174569387 36.37845853640832 0
303 1 9 10.613898996824732 36.04548927479717 0
304 1 8 17.61192641781834 36.376974438089604 0
305 1 8 24.391266750909192 36.2557340884313 0
306 1 9 31.514251243269964 36.13558577150535 0
307 1 3 38.149115982667475 36.02515553999153 0
308 1 3 45.3316369063553 36.1907968442393 0
309 1 3 52.013540929751656 36.0071750593959 0
310 1 3 59.27866321034002 36.385711621331026 0
311 1 3 65.96294395554715 36.2105759456729 0
312 1 9 72.98098843079798 36.12184129447047 0
313 1 8 79.98558136625945 36.34362118049445 0
314 1 8 86.86302045254841 36.005243590597985 0
315 1 9 93.54717659809256 36.345856875307554 0
316 1 3 100.50643277165106 36.26238364365271 0
317 1 3 107.7759655878129 36.33650144635986 0
318 1 3 114.38780447194834 36.3237846963455 0
319 1 3 121.55107436433919 36.22394613683421 0
320 1 3 128.17345261233652 36.38042204557375 0
321 1 9 135.10308194935368 36.31975198345882 0
322 1 8 142.07764250137632 36.11977287957369 0
323 1 8 148.99324514107894 36.330793505598 0
324 1 9 156.0748055442857 36.03342683910978 0
325 1 3 162.8751691697102 36.24282445546923 0
326 1 3 0.27640608924477156 38.0353557644092 0
327 1 6 7.097532188222457 38.35269492624199 0
328 1 7 13.96189441731874 38.01883044258426 0
329 1 8 21.017246159354652 38.229737067122045 0
330 1 7 28.019641949063903 38.36577348424763 0
331 1 6 34.96609870989047 38.13402305981839 0
332 1 3 41.965995960546195 38.31057578199137 0
333 1 6 48.78083264441585 38.11839184817051 0
334 1 6 55.50655065771316 38.16272209141948 0
335 1 3 62.522448494231554 38.136072603206955 0
336 1 6 69.2971955622746 38.299491161167865 0
337 1 7 76.4942425801326 38.01054826799706 0
338 1 8 83.42316208145374 38.321336679937744 0
339 1 7 90.08359783845526 38.273542341056526 0
340 1 6 97.28307145449169 38.01123846851637 0
341 1 3 104.0876628835823 38.01046729088725 0
342 1 6 111.11882559427309 38.36308467222001 0
343 1 6 117.7877317037757 38.259716823728695 0
344 1 3 124.81949122463972 38.335453704130785 0
345 1 6 131.9317566905794 38.11387622584573 0
346 1 7 138.6093101009329 38.357990174799056 0
347 1 8 145.6929133873103 38.178029955019596 0
348 1 7 152.44398064978242 38.25834210879001 0
349 1 6 159.72811998231745 38.173832729433045 0
350 1 3 166.37096351711628 38.346934327694306 0
351 1 6 0.101880990285789 42.09496572797805 0
352 1 3 7.091057439838163 42.07218049497828 0
353 1 9 13.908325295665781 42.3223554875165 0
354 1 7 21.04290686499657 42.05077109531248 0
355 1 9 28.059373631932296 42.0061555892227 0
356 1 3 34.80753944903563 42.36873066966213 0
357 1 6 41.779999193803945 42.17975489070378 0
358 1 9 48.69354639565654 42.02739096952148 0
359 1 9 55.66117055012124 42.325861860143924 0
360 1 6 62.36006823909965 42.1584526006811 0
361 1 3 69.4256024886213 42.1547271271731 0
362 1 9 76.275793067051 42.20121281888164 0
363 1 7 83.27855613555384 42.27369852461638 0
364 1 9 90.37063937501162 42.022835716915935 0
365 1 3 97.24669541837788 42.015978954020035 0
366 1 6 104.25339013651102 42.388712207254 0
367 1 9 111.23157915351443 42.15142305786002 0
368 1 9 118.07291706358987 42.179556321099405 0
369 1 6 125.07134675394464 42.120205007680504 0
370 1 3 131.7952779574844 42.34740122348574 0
371 1 9 138.5649433703029 42.3551347615342 0
372 1 7 145.5060446339711 42.00322375508439 0
373 1 9 152.79413914611726 42.1232704222099 0
374 1 3 159.4536401764136 42.153001621200445 0
375 1 6 166.6245452071189 42.39814742407396 0
376 1 3 -3.23226443951773 44.255241090057666 0
377 1 3 3.4924241110176446 44.269494261848905 0
378 1 6 10.647543389402324 44.18807534254402 0
379 1 9 17.442027620356914 44.157531147321826 0
380 1 9 24.315884221480957 44.08955076413446 0
381 1 6 31.39907747425633 44.2388909335481 0
382 1 3 38.4179313613793 44.29708596246643 0
383 1 9 45.15300050888323 44.30844693771887 0
384 1 7 52.351674458690795 44.196346407843734 0
385 1 9 59.18445602973054 44.35792507097736 0
386 1 3 66.05586689711438 44.26281023358087 0
387 1 6 72.79891888551448 44.08633492802547 0
388 1 9 79.96418485219235 44.12962832132416 0
389 1 9 86.99989811330366 44.24442549040634 0
390 1 6 93.91873795226184 44.26078976360066 0
391 1 3 100.8440724564867 44.24996635810772 0
392 1 9 107.73578038835002 44.354251552522484 0
393 1 7 114.42065892540214 44.096286274359265 0
394 1 9 121.39927287614924 44.155891097661325 0
395 1 3 128.19468469476953 44.11696191834471 0
396 1 6 135.40447101543663 44.20020785919836 0
397 1 9 142.19209604327122 44.08682465375951 0
398 1 9 149.2868369787533 44.2978622122109 0
399 1 6 156.10777063183914 44.10582154954861 0
400 1 3 162.83139792065901 44.14658467335111 0
401 1 10 -3.2708143005841093 48.14952536938259 0
402 1 6 3.5844194180985194 48.2527619371623 0
403 1 3 10.648732774218688 48.13215214595776 0
404 1 6 17.679691619742297 48.28771816938963 0
405 1 6 24.400061317647328 48.01958800392923 0
406 1 3 31.355520850842844 48.29005395341031 0
407 1 6 38.167550722400094 48.07496002896773 0
408 1 7 45.232145897117206 48.334564060200215 0
409 1 8 52.29546383337067 48.32380892885497 0
410 1 7 59.239811423000695 48.353205010312806 0
411 1 6 66.09519387774576 48.34179184956301 0
412 1 3 73.08414798629441 48.190299706013484 0
413 1 6 80.05713950729869 48.370003751301375 0
414 1 6 86.73795500591847 48.35936807874616 0
415 1 3 93.65546569700048 48.309641132842955 0
416 1 6 100.56329151738811 48.39873426542633 0
417 1 7 107.42514852338418 48.36914596939132 0
418 1 8 114.5986157496657 48.235917558935455 0
419 1 7 121.47756746524307 48.20858451033723 0
420 1 6 128.27481145051757 48.30390005877199 0
421 1 3 135.30458820288956 48.24490545543159 0
422 1 6 142.02994095608955 48.393407088784066 0
423 1 6 149.04047993573244 48.383645564885086 0
424 1 3 155.90136841787123 48.34993193459365 0
425 1 6 162.84693748112278 48.070767480911385 0
426 1 9 0.22655195359133648 50.38698439500194 0
427 1 3 7.270681948839319 50.15719616265325 0
428 1 3 13.920795884776133 50.12658545367627 0
429 1 3 21.047075202533737 50.31846737602958 0
430 1 3 27.89078437788209 50.2532376365805 0
431 1 3 35.04044222804175 50.184530284044904 0
432 1 9 41.79688766628984 50.21398598054865 0
433 1 8 48.89400062294952 50.07443299279049 0
434 1 8 55.813561605535206 50.339752768244885 0
435 1 9 62.452811079414545 50.27621758681289 0
436 1 3 69.60177988144508 50.23857385364101 0
437 1 3 76.22244439986 50.067989686911844 0
438 1 3 83.21408848345996 50.1072593878399 0
439 1 3 90.20906867798443 50.24859955815595 0
440 1 3 97.34099204602693 50.04126059546769 0
441 1 9 104.25016826328368 50.19222592602962 0
442 1 8 111.24053965083542 50.21666447336136 0
443 1 8 117.85398166435955 50.129886261219234 0
444 1 9 124.89998219021665 50.29135776831537 0
445 1 3 131.71319562358636 50.126572131106826 0
446 1 3 138.66284538634395 50.12978809628513 0
447 1 3 145.66765015330571 50.227974371143645 0
448 1 3 152.57540868546874 50.32450490836937 0
449 1 3 159.4429876721648 50.03511647649019 0
450 1 9 166.34642547546306 50.25956956383669 0
451 1 9 0.17679745904933974 54.21315830939666 0
452 1 3 7.172480841811966 54.354902074449 0
453 1 3 13.9288877529367 54.072071435664725 0
454 1 3 21.05421674746667 54.096828373262824 0
455 1 3 27.99812435175936 54.3773527027894 0
456 1 3 34.9400698603337 54.28664008014174 0
457 1 9 41.65497461830599 54.36101822858119 0
458 1 8 48.7324046834593 54.136833667669315 0
459 1 8 55.64647611875006 54.006156072441094 0
460 1 9 62.63749146148628 54.32878209624921 0
461 1 3 69.53958131933291 54.20363987926144 0
462 1 3 76.54874716952527 54.302500984703556 0
463 1 3 83.4133997539955 54.19911221961821 0
464 1 3 90.25672752916238 54.36367725225288 0
465 1 3 97.13178308425177 54.348213382188185 0
466 1 9 104.14914267604837 54.168398457373044 0
467 1 8 110.92585375685505 54.161355864644214 0
468 1 8 117.78213399131559 54.23172146250354 0
469 1 9 124.7600357860128 54.03535021299438 0
470 1 3 131.72320624594636 54.001938543215964 0
471 1 3 138.56742696394022 54.31011557264285 0
472 1 3 145.49966026518388 54.333224363081875 0
473 1 3 152.7645285847307 54.33081241323426 0
474 1 3 159.37174362542746 54.104956391763224 0
475 1 9 166.6333185629931 54.13974025568262 0
476 1 10 -3.19936759005926 56.10604780257468 0
477 1 6 3.7053404066588764 56.119197559056694 0
478 1 3 10.59061379427901 56.16271605794927 0
479 1 6 17.548733872729844 56.15281513308149 0
480 1 6 24.565678808426885 56.131347070862674 0
481 1 3 31.544630202836647 56.122689949334514 0
482 1 6 38.242856486196104 56.0280539661341 0
483 1 7 45.362548488418625 56.234034474461744 0
484 1 8 52.332330122756574 56.34008413534305 0
485 1 7 59.21289694648593 56.27112527113943 0
486 1 6 66.10167177963554 56.203170566440406 0
487 1 3 73.0757291278634 56.38890295030389 0
488 1 6 79.85507705988162 56.2107647270967 0
489 1 6 86.91562977300725 56.04969253542468 0
490 1 3 93.7947754903874 56.185845216423964 0
491 1 6 100.79364850234359 56.37865711723074 0
492 1 7 107.72881960111471 56.30546258461259 0
493 1 8 114.3418373616034 56.30732054213595 0
494 1 7 121.57627048088807 56.279266458163555 0
495 1 6 128.5038152433189 56.33028824871644 0
496 1 3 135.23634831494343 56.09827258313706 0
497 1 6 142.21668321026652 56.18965819647468 0
498 1 6 149.1929035647335 56.38357551422094 0
499 1 3 155.95843127319233 56.34742861949734 0
500 1 6 162.97016348171246 56.0377816624359 0
501 1 3 -3.241427590158252 60.149383127998256 0
502 1 3 3.5862038355659216 60.287480536940365 0
503 1 6 10.792281145820292 60.2077264962768 0
504 1 9 17.468964906925695 60.326006497074864 0
505 1 9 24.498022883094468 60.3472254095424 0
506 1 6 31.56343929695382 60.29255032882694 0
507 1 3 38.109189338551694 60.22348343055824 0
508 1 9 45.12131873487492 60.14764355028468 0
509 1 7 52.07511812373462 60.31296439972465 0
510 1 9 59.20697541819441 60.04310881057782 0
511 1 3 65.82789301119409 60.315199820371255 0
512 1 6 73.0184431041936 60.29870667675681 0
513 1 9 79.83478176163875 60.35371591684615 0
514 1 9 86.68315721354583 60.03061966349049 0
515 1 6 93.69364573601776 60.04225007196127 0
516 1 3 100.5591751013991 60.16338344131157 0
517 1 9 107.54345464622754 60.165719426868726 0
518 1 7 114.38942173249507 60.043014907082075 0
519 1 9 121.25047095194839 60.28744127428636 0
520 1 3 128.504920541404 60.27858018590144 0
521 1 6 135.10629648790052 60.34220173420352 0
522 1 9 142.35703709166424 60.048725444133254 0
523 1 9 149.20103135286826 60.20904598426832 0
524 1 6 155.90333921929923 60.223820399808524 0
525 1 3 163.00400753310657 60.22768876558686 0
526 1 6 0.1761486041756981 62.02577564763728 0
527 1 3 6.948782404297287 62.337487242835806 0
528 1 9 14.239248566402933 62.36565943519901 0
529 1 7 20.856190949026647 62.303066529835554 0
530 1 9 27.94091719330968 62.21699991071833 0
531 1 3 34.94629458671264 62.037127894175285 0
532 1 6 41.86004802621592 62.03905839599492 0
533 1 9 48.67600314385306 62.117810927384944 0
534 1 9 55.58943739232512 62.123194081198854 0
535 1 6 62.42903763537576 62.17954885064075 0
536 1 3 69.44653572186722 62.35900270280793 0
537 1 9 76.22008192878378 62.058222694319085 0
538 1 7 83.3229077729475 62.37941640106997 0
539 1 9 90.13651409493102 62.306914262773574 0
540 1 3 97.01219652806017 62.12892960523692 0
541 1 6 104.08285059821588 62.16585779223203 0
542 1 9 110.9119830783085 62.02203587634553 0
543 1 9 118.00680197623998 62.307208685523364 0
544 1 6 125.04854116281496 62.285108939050644 0
545 1 3 131.8365520623197 62.22567695266753 0
546 1 9 138.80120520267135 62.34663572096743 0
547 1 7 145.59891901209642 62.09120928879782 0
548 1 9 152.4708036307668 62.09543654315418 0
549 1 3 159.59407127630354 62.28813963162597 0
550 1 6 166.56606083157288 62.33777652685288 0
551 1 3 0.2892369239761707 66.37242199404035 0
552 1 6 7.087246673990162 66.03684731465248 0
553 1 7 13.899092097998489 66.22339081177809 0
554 1 8 21.014134522051247 66.21778449257097 0
555 1 7 27.93970293939828 66.00934072223028 0
556 1 6 34.81600704085021 66.02016675700426 0
557 1 3 41.783023749804045 66.27491271544386 0
558 1 6 48.554817188874104 66.31530266202743 0
559 1 6 55.577433952622584 66.31361116885911 0
560 1 3 62.628278000377556 66.32031806687624 0
561 1 6 69.36036590017076 66.11998111003554 0
562 1 7 76.30021762133087 66.3586442576788 0
563 1 8 83.49986559629627 66.13579888641841 0
564 1 7 90.20271216076613 66.0858084947685 0
565 1 6 97.1000034280176 66.13528566942894 0
566 1 3 104.0098684134626 66.19535111534393 0
567 1 6 110.90964274231779 66.07333108130148 0
568 1 6 117.95214571722718 66.0930293551068 0
569 1 3 124.97942090659564 66.08509203208621 0
570 1 6 131.66794751654905 66.06773123360888 0
571 1 7 138.60884140274175 66.14266970060822 0
572 1 8 145.74895736128565 66.08128417252207 0
573 1 7 152.5566313751695 66.06831038412075 0
574 1 6 159.40908278648007 66.08058459193758 0
575 1 3 166.34813915474734 66.2917198816767 0
576 1 2 -3.0814265696993655 68.2573562362527 0
577 1 3 3.6487964271819515 68.2743848402386 0
578 1 9 10.435263477131297 68.16342695875456 0
579 1 8 17.573372492437578 68.02810453705166 0
580 1 8 24.631978141543684 68.24791375890906 0
581 1 9 31.242880752284112 68.08797924484777 0
582 1 3 38.26632301206805 68.26241351000985 0
583 1 3 45.398229203307814 68.29183986554624 0
584 1 3 52.13901194150144 68.27339398897011 0
585 1 3 58.943801313785805 68.09551127799963 0
586 1 3 65.94283051804935 68.31072823440554 0
587 1 9 72.90195685554296 68.07203656251495 0
588 1 8 80.00574487148229 68.38629646290975 0
589 1 8 86.99478494266013 68.12599228784434 0