
14309 atoms
14896 bonds
16659 angles
49 atom types
14 bond types
38 angle types

-5.680607966083864 171.52447279080386 xlo xhi
-2.0 148.0 ylo yhi
-4 4 zlo zhi


Masses

1 0.00010395929045431343
2 0.0001633645992853497
3 0.00044553981623277186
4 0.0007871203420112303
5 0.0004900937978560491
6 0.0003564318529862175
7 0.0008465256508422665
8 0.0006831610515569169
9 0.0005940530883103624
10 0.00020791858090862686
11 0.00026732388973966316
12 0.0010395929045431342
13 0.0009207822868810619
14 0.0007722690148034712
15 0.0004455398162327719
16 0.0009801875957120981
17 0.001158403522205207
18 0.0009504849412965799
19 0.0008910796324655437
20 0.0007425663603879532
21 0.0011287008677896887
22 0.0006237557427258806
23 0.0012475114854517612
24 0.0010098902501276162
25 0.000742566360387953
26 0.0006237557427258805
27 0.0006831610515569168
28 0.0005049451250638081
29 0.0002673238897396631
30 0.00025247256253190404
31 0.0008019716692189893
32 0.000712863705972435
33 0.0007574176875957122
34 0.0005346477794793262
35 0.0005197964522715671
36 0.00020791858090862686
37 0.00011881061766207249
38 0.0002970265441551812
39 0.0005940530883103624
40 0.0008910796324655437
41 0.0006831610515569168
42 0.00047524247064828994
43 0.0005049451250638081
44 0.0005346477794793262
45 0.0003564318529862175
46 0.00017821592649310875
47 0.0008019716692189893
48 0.000712863705972435
49 0.0006534583971413986

Pair Coeffs

1 0.40509979849834776 0.44544935907016964 0.5
2 0.40509979849834776 0.44544935907016964 0.5
3 0.40509979849834776 0.44544935907016964 0.5
4 0.40509979849834776 0.44544935907016964 0.5
5 0.40509979849834776 0.44544935907016964 0.5
6 0.40509979849834776 0.44544935907016964 0.5
7 0.40509979849834776 0.44544935907016964 0.5
8 0.40509979849834776 0.44544935907016964 0.5
9 0.40509979849834776 0.44544935907016964 0.5
10 0.40509979849834776 0.44544935907016964 0.5
11 0.40509979849834776 0.44544935907016964 0.5
12 0.40509979849834776 0.44544935907016964 0.5
13 0.40509979849834776 0.44544935907016964 0.5
14 0.40509979849834776 0.44544935907016964 0.5
15 0.40509979849834776 0.44544935907016964 0.5
16 0.40509979849834776 0.44544935907016964 0.5
17 0.40509979849834776 0.44544935907016964 0.5
18 0.40509979849834776 0.44544935907016964 0.5
19 0.40509979849834776 0.44544935907016964 0.5
20 0.40509979849834776 0.44544935907016964 0.5
21 0.40509979849834776 0.44544935907016964 0.5
22 0.40509979849834776 0.44544935907016964 0.5
23 0.40509979849834776 0.44544935907016964 0.5
24 0.40509979849834776 0.44544935907016964 0.5
25 0.40509979849834776 0.44544935907016964 0.5
26 0.40509979849834776 0.44544935907016964 0.5
27 0.40509979849834776 0.44544935907016964 0.5
28 0.40509979849834776 0.44544935907016964 0.5
29 0.40509979849834776 0.44544935907016964 0.5
30 0.40509979849834776 0.44544935907016964 0.5
31 0.40509979849834776 0.44544935907016964 0.5
32 0.40509979849834776 0.44544935907016964 0.5
33 0.40509979849834776 0.44544935907016964 0.5
34 0.40509979849834776 0.44544935907016964 0.5
35 0.40509979849834776 0.44544935907016964 0.5
36 0.40509979849834776 0.44544935907016964 0.5
37 0.40509979849834776 0.44544935907016964 0.5
38 0.40509979849834776 0.44544935907016964 0.5
39 0.40509979849834776 0.44544935907016964 0.5
40 0.40509979849834776 0.44544935907016964 0.5
41 0.40509979849834776 0.44544935907016964 0.5
42 0.40509979849834776 0.44544935907016964 0.5
43 0.40509979849834776 0.44544935907016964 0.5
44 0.40509979849834776 0.44544935907016964 0.5
45 0.40509979849834776 0.44544935907016964 0.5
46 0.40509979849834776 0.44544935907016964 0.5
47 0.40509979849834776 0.44544935907016964 0.5
48 0.40509979849834776 0.44544935907016964 0.5
49 0.40509979849834776 0.44544935907016964 0.5

Bond Coeffs

1 41.58371618172537 0.5
2 23.7621235324145 0.5
3 59.405308831036244 0.5
4 118.81061766207249 0.5
5 178.21592649310873 0.5
6 136.63221031138335 0.5
7 95.048494129658 0.5
8 100.98902501276162 0.5
9 106.92955589586524 0.5
10 71.2863705972435 0.5
11 35.64318529862175 0.5
12 160.39433384379785 0.5
13 142.572741194487 0.5
14 130.69167942827974 0.5

Angle Coeffs

1 0.5992232392860981 180
2 0.11180841782597749 180
3 1.7470065285308978 180
4 13.976052228247182 180
5 47.16917627033425 180
6 21.25582843263543 180
7 7.155738740862559 180
8 8.583043074672302 180
9 10.188542074392197 180
10 3.0188272813013928 180
11 0.3773534101626741 180
12 34.38632950107367 180
13 24.150618250411142 180
14 18.602125515797002 180
15 0.18845350031602096 120
16 3.10578938405493 120
17 29.30565872704862 120
18 7.80467186898829 120
19 4.657619234007863 120
20 0.7277530053137283 120
21 39.77597397463699 120
22 21.016327486954715 120
23 13.976052228247182 120
24 0.5992232392860981 120
25 0.8923652111483215 120
26 21.56305200929566 120
27 10.706988041575938 120
28 21.25582843263543 120
29 9.317134892785269 120
30 8.583043074672302 120
31 0.6708505069558646 120
32 3.018827281301391 120
33 16.75747051709244 120
34 10.188542074392197 120
35 28.373570837308165 120
36 34.38632950107367 120
37 15.960639653193475 120
38 18.602125515797002 120

Atoms

1 1 1 -3.2687546508308025 0.23228316847378905 0
2 1 2 3.74305643460038 0.2198098864141653 0
3 1 3 10.440601402845077 0.11277944465995149 0
4 1 4 17.590641589001642 0.23940998756060328 0
5 1 5 24.362613827719255 0.2178017915946228 0
6 1 3 31.48864187302896 0.21408378036860753 0
7 1 6 38.24480768693964 0.1667117693726584 0
8 1 7 45.29605400390266 0.3291988855987804 0
9 1 8 52.03806860563994 0.05974732245025752 0
10 1 9 59.129615571892714 0.31417313852072687 0
11 1 9 65.98866809571336 0.1741897624777193 0
12 1 8 73.07548463716314 0.38857073986005836 0
13 1 7 79.72493078504017 0.10225897189533494 0
14 1 6 86.6062471730147 0.3018234815481258 0
15 1 3 93.57379819714409 0.2940523154042258 0
16 1 5 100.63992786942254 0.08674277934430626 0
17 1 4 107.39245120361011 0.001971514803459895 0
18 1 3 114.58677316973889 0.18177266396102365 0
19 1 2 121.63763283389729 0.27633874815578857 0
20 1 10 128.519847015172 0.042441980532406554 0
21 1 10 135.2506957607831 0.29244878906145527 0
22 1 10 142.412630931213 0.2244514775613031 0
23 1 10 149.27115846556126 0.10087096939993967 0
24 1 10 156.09861651150152 0.023076285748679173 0
25 1 10 162.94687068818334 0.21111826130373013 0
26 1 11 0.33047044352118843 2.3381941197689304 0
27 1 6 6.974514378049498 2.1677973319780897 0
28 1 12 14.144971573596447 2.239506778392257 0
29 1 13 21.119605082719428 2.2281143979223446 0
30 1 14 27.916710353286142 2.338847460622984 0
31 1 15 34.95819342493776 2.114429220583952 0
32 1 16 41.88425252320395 2.3251780659479047 0
33 1 17 48.85512197554071 2.197535181636102 0
34 1 18 55.44785812842675 2.1628862733765724 0
35 1 19 62.51790076919026 2.318767686617544 0
36 1 18 69.44062343719528 2.073514782746359 0
37 1 17 76.33800195625675 2.0594307321504903 0
38 1 16 83.30802851266748 2.357833907169981 0
39 1 15 90.40894905703797 2.175817368291175 0
40 1 14 97.38918148828343 2.373602555643703 0
41 1 13 104.2365275694913 2.0849560297842076 0
42 1 12 111.00846244393436 2.196896587647131 0
43 1 6 118.00103997000558 2.1261185628242827 0
44 1 11 125.09541950271708 2.2234440749302924 0
45 1 6 131.6519590291799 2.182585208019134 0
46 1 6 138.7079417911781 2.0235166347655817 0
47 1 6 145.669664220583 2.3971055429932937 0
48 1 6 152.71927946849627 2.163951058965282 0
49 1 6 159.40324547962936 2.2982862038005734 0
50 1 6 166.63697012602708 2.051974570240532 0
51 1 6 0.09631071217307792 6.373034046327065 0
52 1 11 7.211074689928104 6.203957566434621 0
53 1 20 14.035952880709653 6.186035789761961 0
54 1 21 21.096347099885705 6.295877715375759 0
55 1 20 27.73546275195686 6.363963740849813 0
56 1 22 34.69772278804699 6.1655516469767955 0
57 1 22 41.84452871704327 6.2525623569324775 0
58 1 23 48.510179039683216 6.176846395432281 0
59 1 24 55.76493394613882 6.202180916825496 0
60 1 18 62.64061139006542 6.391576504878947 0
61 1 24 69.39502891076663 6.065018439489869 0
62 1 23 76.23572183637856 6.038589098399455 0
63 1 22 83.44850401659417 6.1585831035868255 0
64 1 22 90.09424115390946 6.130583179018353 0
65 1 20 97.3338950121508 6.0689652607994296 0
66 1 21 103.95796058201901 6.347217487921948 0
67 1 20 111.14113362284154 6.396958055893504 0
68 1 11 117.91645359641072 6.043949279810941 0
69 1 6 124.7117341819561 6.095513623320434 0
70 1 25 131.66236339949836 6.1733315031926566 0
71 1 25 138.7904914626875 6.082473219285403 0
72 1 25 145.71076686084118 6.097016399030978 0
73 1 25 152.64707873030986 6.251926529206298 0
74 1 25 159.47596648550223 6.137947325576067 0
75 1 25 166.3729157260511 6.13472331632432 0
76 1 3 -3.339032145441315 8.10562956622705 0
77 1 11 3.7824393926408946 8.18242703631555 0
78 1 6 10.507673544968252 8.244872159582055 0
79 1 12 17.510432037494716 8.282436813875215 0
80 1 13 24.32296797101839 8.28715147138517 0
81 1 14 31.54998779842756 8.310776509077881 0
82 1 15 38.19943753007665 8.019783573748814 0
83 1 16 45.04254001890872 8.268495074802875 0
84 1 17 52.11228154390954 8.23795509824402 0
85 1 24 59.28683792373168 8.044547040832253 0
86 1 24 66.0552629817154 8.119313178070644 0
87 1 17 72.87798147516534 8.378340322977337 0
88 1 16 80.01525929238905 8.09365617850995 0
89 1 15 86.61009832331872 8.362206976432647 0
90 1 14 93.84817144247512 8.126690592078043 0
91 1 13 100.51904756342462 8.045678160929222 0
92 1 12 107.46472474901375 8.210626458353474 0
93 1 6 114.46062861263027 8.123362765964709 0
94 1 11 121.36376788886128 8.101349631194054 0
95 1 20 128.49883177991967 8.065093758995872 0
96 1 12 135.37052315610197 8.162406217114256 0
97 1 12 142.3434040414908 8.218245835012585 0
98 1 12 149.09022932035504 8.360616887358859 0
99 1 12 156.122537623653 8.027639472313469 0
100 1 12 163.04846433503934 8.115562389126161 0
101 1 9 -3.4112755708176525 12.013862939652213 0
102 1 6 3.474581600826914 12.398193224420787 0
103 1 11 10.64465001677961 12.176822120448907 0
104 1 20 17.682710526168105 12.37732883335667 0
105 1 21 24.37745025236713 12.263164413647642 0
106 1 20 31.413050784273995 12.162043965022205 0
107 1 22 38.501748007659224 12.38789693138253 0
108 1 22 45.05594214169899 12.016605434199283 0
109 1 23 52.28724519955631 12.023046615603942 0
110 1 17 59.02315153640196 12.166202660712438 0
111 1 17 66.12837794462882 12.107018307491806 0
112 1 23 72.92222810880415 12.002901890361903 0
113 1 22 79.77210981565963 12.396266433832249 0
114 1 22 86.80649343008963 12.089790075242536 0
115 1 20 93.56051436227438 12.00218257571503 0
116 1 21 100.5346475960315 12.125013300813928 0
117 1 20 107.43355130039295 12.344465102313038 0
118 1 11 114.5517397524453 12.132968048359972 0
119 1 6 121.53573839140265 12.2233002381632 0
120 1 12 128.2262905257923 12.166169978308417 0
121 1 21 135.44324826307061 12.282484954689737 0
122 1 21 142.0348629670824 12.24505703761396 0
123 1 21 149.2424227312775 12.272662405087383 0
124 1 21 156.09576113074638 12.323865134681382 0
125 1 21 162.93900821660114 12.16998168434341 0
126 1 20 0.1066577470137323 14.27870191461972 0
127 1 11 7.160115433868347 14.275931389925544 0
128 1 6 13.993629256878345 14.112780592944798 0
129 1 12 20.995362653583907 14.24295081154902 0
130 1 13 28.024348565217135 14.367270501238016 0
131 1 14 34.869443356128 14.115288598044156 0
132 1 15 41.9299698839522 14.292104893177875 0
133 1 16 48.60017021550361 14.351604681333951 0
134 1 23 55.79768677800221 14.398928183348918 0
135 1 23 62.396734674584316 14.273617984452724 0
136 1 23 69.47645059965217 14.133961097311195 0
137 1 16 76.38499618181942 14.006605320726084 0
138 1 15 83.38948348588349 14.148368946539014 0
139 1 14 90.46344981229514 14.23800642477978 0
140 1 13 97.10772039604483 14.367268909490106 0
141 1 12 104.21786980805555 14.039211180204058 0
142 1 6 110.95866889283778 14.38046144479641 0
143 1 11 117.929550390276 14.2152854651969 0
144 1 20 124.71727467606917 14.114551447622086 0
145 1 21 131.7379740472589 14.177654092576544 0
146 1 13 138.67414573109104 14.150449815377389 0
147 1 13 145.65624117621303 14.242913852849357 0
148 1 13 152.47047054606236 14.29812066000013 0
149 1 13 159.6592310848437 14.194179672926387 0
150 1 13 166.60094621773348 14.251043770725493 0
151 1 12 0.3114980931116624 18.010675886896717 0
152 1 6 7.283634651176061 18.391227706105347 0
153 1 11 13.901616200544941 18.280521924902413 0
154 1 20 20.804351315018597 18.000611964817903 0
155 1 21 28.003870822042494 18.054026219087874 0
156 1 20 34.66046952861747 18.16648763752465 0
157 1 22 41.795127477634196 18.28199376281982 0
158 1 22 48.77829152246327 18.31565137779289 0
159 1 16 55.540196652061766 18.36381826840676 0
160 1 16 62.41346366523355 18.29108840273365 0
161 1 16 69.30982538012464 18.18063765125092 0
162 1 22 76.26750105100278 18.15924349871823 0
163 1 22 83.50861644724931 18.15827769033517 0
164 1 20 90.46154647824994 18.10234346294684 0
165 1 21 97.20282381253392 18.214679498632016 0
166 1 20 103.97867182208452 18.224932292315003 0
167 1 11 110.89724090205034 18.035358822864932 0
168 1 6 117.94790105158897 18.216212543756278 0
169 1 12 124.93009828124605 18.268301633679748 0
170 1 13 131.76768860437693 18.078734915063507 0
171 1 20 138.76078038443077 18.030087526086486 0
172 1 20 145.75795998226263 18.23999474889083 0
173 1 20 152.779418140603 18.363212570146892 0
174 1 20 159.5009528004713 18.245084221204568 0
175 1 20 166.49245442223648 18.209568241513573 0
176 1 4 -3.2550271271470237 20.13445292645836 0
177 1 20 3.7829497550589855 20.15245375476787 0
178 1 11 10.691110243554073 20.136593790926277 0
179 1 6 17.70635043753289 20.258487557804276 0
180 1 12 24.337320565965868 20.299140127799756 0
181 1 13 31.4346260017126 20.312562164766963 0
182 1 14 38.17454582615875 20.278744528674352 0
183 1 15 45.34874734067273 20.052711197359358 0
184 1 26 52.079658028342905 20.135758062283365 0
185 1 26 59.19788075155201 20.128458822984694 0
186 1 26 66.04235544276894 20.340665017128053 0
187 1 26 72.77213552842171 20.10234089885925 0
188 1 15 79.75885254175529 20.064757117826417 0
189 1 14 86.83772488573898 20.358742730277132 0
190 1 13 93.79262351578222 20.1252579508378 0
191 1 12 100.46735400595036 20.37044714691168 0
192 1 6 107.40187135410346 20.35376753995112 0
193 1 11 114.33500945455619 20.008957992107977 0
194 1 20 121.25831924163995 20.37744162592214 0
195 1 21 128.5160157042343 20.091724967003785 0
196 1 20 135.21382239416462 20.203242177544457 0
197 1 14 142.04936615729363 20.267240650600577 0
198 1 14 148.98681077105917 20.085128031052076 0
199 1 14 156.24897030980483 20.314078265176644 0
200 1 14 163.19219437190984 20.134653393224998 0
201 1 27 -3.434365898424994 24.20340428544549 0
202 1 12 3.736015478499495 24.208125057045883 0
203 1 6 10.542132478378864 24.160720736780856 0
204 1 11 17.398479513541506 24.035008133680332 0
205 1 20 24.271302559941525 24.292438095739683 0
206 1 21 31.306244414220064 24.31671258356377 0
207 1 20 38.46792363061592 24.069482751248096 0
208 1 22 45.195654857653864 24.28647182890709 0
209 1 3 52.08034953254185 24.031325137895973 0
210 1 3 59.201844574683776 24.256286287824032 0
211 1 3 66.0210477289212 24.11499893223756 0
212 1 3 72.83141437312234 24.12990238489499 0
213 1 22 80.04743739438943 24.22396129459638 0
214 1 20 86.92819938912417 24.251540578131415 0
215 1 21 93.66817397340273 24.139967930368318 0
216 1 20 100.69330208440506 24.296316330644988 0
217 1 11 107.42664663198357 24.134563324827628 0
218 1 6 114.32954942821608 24.30103619727982 0
219 1 12 121.44475566102732 24.270429783332858 0
220 1 13 128.24816937430637 24.36677910281355 0
221 1 14 135.1870677449193 24.17608899387429 0
222 1 22 142.13866329246767 24.15162826751828 0
223 1 22 149.27171378219518 24.27515409730781 0
224 1 22 155.9148031774072 24.096220567170235 0
225 1 22 162.94655610739338 24.245931977898007 0
226 1 21 0.02077166665958088 26.026865080255725 0
227 1 20 7.278080801032872 26.282680296653783 0
228 1 11 14.197115944621213 26.195743213033506 0
229 1 6 20.854390319344454 26.375198289145665 0
230 1 12 27.77696765604794 26.27750394778665 0
231 1 13 34.759376198414984 26.23924334980717 0
232 1 14 41.87791644353157 26.041986307982373 0
233 1 22 48.76936988132292 26.041091046423883 0
234 1 22 55.5529640503388 26.339244114935006 0
235 1 22 62.69421301363941 26.11084973671961 0
236 1 22 69.43583641459225 26.20293639326905 0
237 1 22 76.43461265307282 26.071808528496696 0
238 1 14 83.3831864327172 26.195990756544408 0
239 1 13 90.31618822878006 26.287273500579758 0
240 1 12 97.15498945329875 26.245156989870257 0
241 1 6 104.22700895961867 26.345729578863196 0
242 1 11 110.88499299712936 26.363899795684457 0
243 1 20 118.12276303999921 26.25407484789139 0
244 1 21 124.83475057732315 26.242483907453025 0
245 1 20 131.6610177589816 26.02034126157155 0
246 1 22 138.5663584204916 26.006845117473617 0
247 1 3 145.82039091917704 26.20786813282548 0
248 1 3 152.54136624203795 26.021424154460338 0
249 1 3 159.53908129241955 26.216527221774964 0
250 1 3 166.45663568320515 26.007192425321907 0
251 1 13 0.3109604777427013 30.16186135939353 0
252 1 12 7.26207326837432 30.121370757186895 0
253 1 6 14.18038775830207 30.18950435153336 0
254 1 11 20.792661727831852 30.209611735655344 0
255 1 20 28.063999197865417 30.033842325327548 0
256 1 21 35.036417382849145 30.26528519256929 0
257 1 20 41.579407394574346 30.248224368237842 0
258 1 14 48.85581926452333 30.00290187121408 0
259 1 14 55.518141422799765 30.134975203507718 0
260 1 14 62.38577291714851 30.26241489371183 0
261 1 14 69.6500647182309 30.207553552385804 0
262 1 14 76.4248175680282 30.204205210109286 0
263 1 20 83.47314435589881 30.25171270294304 0
264 1 21 90.29976287132857 30.230322555946824 0
265 1 20 97.28881133959933 30.096987877178634 0
266 1 11 104.00234982120959 30.028642473941826 0
267 1 6 111.16621200820951 30.16233055171851 0
268 1 12 118.08164687114494 30.206893823429233 0
269 1 13 124.80284845673451 30.304624023277324 0
270 1 14 131.87781029330333 30.332862914241154 0
271 1 15 138.72237611110097 30.262974053735515 0
272 1 26 145.70570110652903 30.124647403931014 0
273 1 26 152.53194962665154 30.21455164671541 0
274 1 26 159.47787351118336 30.184314194311003 0
275 1 26 166.34741118798976 30.161870783503264 0
276 1 5 -3.2739219988461534 32.269653189804444 0
277 1 21 3.8260491634415255 32.313129364877966 0
278 1 20 10.774469062556852 32.324613633900576 0
279 1 11 17.501147900296125 32.22358411679767 0
280 1 6 24.5538050000769 32.314200725733336 0
281 1 12 31.214332482635026 32.39647634998577 0
282 1 13 38.37580101826085 32.198610903914286 0
283 1 20 45.427094858233026 32.089172416211106 0
284 1 20 52.0616215458479 32.102596613477786 0
285 1 20 58.9131914111523 32.316236191147674 0
286 1 20 65.94847023124576 32.3266384474909 0
287 1 20 72.78847861993003 32.392262587056585 0
288 1 20 79.89121297629464 32.13229550154577 0
289 1 13 86.8891901107275 32.191581702406744 0
290 1 12 93.59547945226505 32.323877101458095 0
291 1 6 100.66705051615732 32.17053505573591 0
292 1 11 107.39060601076223 32.026554599241194 0
293 1 20 114.54488692962418 32.14515786633956 0
294 1 21 121.48691080850779 32.08887497091061 0
295 1 20 128.39818973162775 32.11907499388855 0
296 1 22 135.18412329616504 32.06289620833036 0
297 1 22 142.21057445369533 32.38439658921244 0
298 1 16 149.23192197519217 32.01302408464269 0
299 1 16 155.98783287463107 32.19433254013555 0
300 1 16 163.10589763710598 32.064094481206645 0
301 1 28 -3.363649161158381 36.202645295960245 0
302 1 13 3.616540627018282 36.313064028494146 0
303 1 12 10.575027267884268 36.00881860551667 0
304 1 6 17.522075775537946 36.104279469415836 0
305 1 11 24.373526373298667 36.16026957921691 0
306 1 20 31.2720333056032 36.274224644740755 0
307 1 21 38.444591904591675 36.3461562968241 0
308 1 13 45.30580484861655 36.34227005929605 0
309 1 13 52.12340371744641 36.17174071939397 0
310 1 13 59.27174620310636 36.31295514262856 0
311 1 13 66.04575543831211 36.28799250846204 0
312 1 13 72.90569262118973 36.142152885671514 0
313 1 13 79.71270055578248 36.075633057315805 0
314 1 21 86.9061970352811 36.36631096135251 0
315 1 20 93.80277792763094 36.176425403105 0
316 1 11 100.47749014510556 36.20637419180041 0
317 1 6 107.41745672932991 36.010827768845736 0
318 1 12 114.46226828620034 36.20732606974285 0
319 1 13 121.57837044839577 36.106674809705744 0
320 1 14 128.30139891639888 36.18123395340986 0
321 1 15 135.30515307244445 36.27536311697154 0
322 1 16 142.06483716453943 36.27827326947221 0
323 1 23 149.18317920908353 36.19346471460409 0
324 1 23 156.2415915089596 36.18885572408997 0
325 1 23 163.1315626348831 36.36714799587829 0
326 1 20 0.3079851722437432 38.08544628124395 0
327 1 21 7.2900967586328695 38.298643080654074 0
328 1 20 13.935887445189502 38.17139607169241 0
329 1 11 21.008370577951897 38.286927124272566 0
330 1 6 27.959839269947707 38.219297391863705 0
331 1 12 34.8256859575833 38.32447886400313 0
332 1 21 41.6384380074845 38.226125315730684 0
333 1 21 48.57165624515967 38.05565670896932 0
334 1 21 55.80917444922122 38.38682365737975 0
335 1 21 62.73317437371524 38.04455191063621 0
336 1 21 69.40159991168652 38.28411016095467 0
337 1 21 76.32004218837714 38.225172688544475 0
338 1 21 83.26377624111221 38.15553622574238 0
339 1 12 90.12580133441287 38.074296767169685 0
340 1 6 97.0110381894356 38.149410874580184 0
341 1 11 103.96674778360638 38.397613961106856 0
342 1 20 111.04029533696598 38.062425512271915 0
343 1 21 118.15537447113302 38.33111154624485 0
344 1 20 124.80802375259567 38.0723543165815 0
345 1 22 131.8679433607803 38.16867882075242 0
346 1 22 138.63594508305917 38.177041061028504 0
347 1 23 145.84718679527472 38.08025211877297 0
348 1 17 152.45954149894075 38.22526661628229 0
349 1 17 159.5344409751026 38.26965675173177 0
350 1 23 166.63367911141466 38.03170385188934 0
351 1 14 0.2940570357100623 42.349260542061515 0
352 1 13 7.033582324536115 42.2052097336816 0
353 1 12 14.178188221519347 42.09002547345907 0
354 1 6 20.979866277360873 42.25499100836657 0
355 1 11 27.742939686588382 42.277045237383774 0
356 1 20 34.83341753398764 42.03173488173093 0
357 1 12 41.94315541960958 42.390950640088846 0
358 1 12 48.63624412044584 42.059081555995036 0
359 1 12 55.74808867252925 42.395059524819736 0
360 1 12 62.49723605027207 42.23225589783266 0
361 1 12 69.3791168084909 42.15166279970263 0
362 1 12 76.55337613768491 42.35402978389659 0
363 1 12 83.37943987836013 42.2115388988216 0
364 1 20 90.10088907473128 42.386537174644964 0
365 1 11 97.166817555838 42.10266103762997 0
366 1 6 104.16218684336364 42.07027066015149 0
367 1 12 111.2299269582058 42.01646292937782 0
368 1 13 117.78315313320526 42.21750361140097 0
369 1 14 124.87778691395965 42.268997466841576 0
370 1 15 131.97397254343136 42.37496499086037 0
371 1 16 138.9151810485286 42.317226274797406 0
372 1 17 145.75297506776124 42.18676926924092 0
373 1 24 152.49283765009113 42.32236576810816 0
374 1 24 159.746416622383 42.03002704548489 0
375 1 17 166.65738565102896 42.2490310701731 0
376 1 3 -3.31876596102394 44.04402752449783 0
377 1 20 3.56838312122057 44.340594309816154 0
378 1 21 10.67009562118134 44.21326509972159 0
379 1 20 17.326364672964246 44.343693560195874 0
380 1 11 24.447834163658353 44.20355667324123 0
381 1 6 31.415821892139125 44.23673222389468 0
382 1 25 38.322030727606375 44.17137954136791 0
383 1 25 45.24826439082081 44.08805393926987 0
384 1 25 51.98125081100902 44.329392078881035 0
385 1 25 59.13272139484568 44.11591569944363 0
386 1 25 66.13451701792826 44.30883050032524 0
387 1 25 72.9054573538216 44.0180105260484 0
388 1 25 79.93060228517075 44.17068663692435 0
389 1 25 86.96769129409094 44.211389684083585 0
390 1 6 93.60866491701626 44.10749341312671 0
391 1 11 100.8150332954573 44.26871025755878 0
392 1 20 107.5095607886086 44.25830863027013 0
393 1 21 114.40467063897812 44.21677928966475 0
394 1 20 121.29220678427984 44.245786657891664 0
395 1 22 128.28445944798273 44.052616391078054 0
396 1 22 135.27350283259597 44.182058357390126 0
397 1 23 142.03185238898016 44.04618952612877 0
398 1 24 149.12190019255584 44.113065505531296 0
399 1 18 155.96595618008627 44.16552012207559 0
400 1 24 162.8735779204505 44.25857849053602 0
401 1 6 -3.3233020697526547 48.06476733509248 0
402 1 14 3.486066562975651 48.20695753832545 0
403 1 13 10.648581065619958 48.270047174818394 0
404 1 12 17.426877029866887 48.016371314561425 0
405 1 6 24.286605855417754 48.31895781968131 0
406 1 11 31.226696378767762 48.02955680632224 0
407 1 6 38.13458086144058 48.35875359024614 0
408 1 6 45.18582383358654 48.23320334070553 0
409 1 6 52.32973919935922 48.14486808561014 0
410 1 6 59.28663994589304 48.22939285559473 0
411 1 6 66.02301306349239 48.05015347302038 0
412 1 6 72.88767595700406 48.351476958765154 0
413 1 6 79.96508668834777 48.11967694336106 0
414 1 6 86.84723093311113 48.31492342949991 0
415 1 11 93.71181432562881 48.08805994909091 0
416 1 6 100.62075318321726 48.10172024397299 0
417 1 12 107.72442759395017 48.32338374818727 0
418 1 13 114.54104907016318 48.36654184678091 0
419 1 14 121.61386577862176 48.36526728390286 0
420 1 15 128.40223009856396 48.24532067258751 0
421 1 16 135.36254656843025 48.24309147730375 0
422 1 17 142.38453406363357 48.244330337479504 0
423 1 18 149.04269816223737 48.103228612595046 0
424 1 19 156.129210077818 48.13956263208018 0
425 1 18 162.83029467611485 48.15708870617089 0
426 1 22 0.23670279456165708 50.168470317632035 0
427 1 20 6.973385970782857 50.38274927198729 0
428 1 21 14.213153641432319 50.34362724776337 0
429 1 20 20.87335931565946 50.011178462014975 0
430 1 11 27.73469491725508 50.30158910429134 0
431 1 29 34.64674442933029 50.35252814657422 0
432 1 29 41.749558395406126 50.39009421353686 0
433 1 29 48.51165780532465 50.096582782897556 0
434 1 29 55.557549900364045 50.181051020844315 0
435 1 29 62.49481304240847 50.14884413513596 0
436 1 29 69.43651078755117 50.0707265180828 0
437 1 29 76.33112169544175 50.076372872072405 0
438 1 29 83.17987861439471 50.20407215806878 0
439 1 29 90.37858876791947 50.00215229466702 0
440 1 11 97.32429554609213 50.36848038101922 0
441 1 20 104.30303270338462 50.288177638574616 0
442 1 21 111.13924996641902 50.26396999561234 0
443 1 20 117.91608595269761 50.34466233731607 0
444 1 22 124.86109902947942 50.37502677333832 0
445 1 22 131.82158628578503 50.25504002807791 0
446 1 23 138.59303257686906 50.1662501725422 0
447 1 24 145.75354303994754 50.10779977346472 0
448 1 19 152.4740071371506 50.11189607334076 0
449 1 19 159.60212641980436 50.17693575057833 0
450 1 24 166.47080617386968 50.21066945603501 0
451 1 22 0.3597718646730763 54.38090567438829 0
452 1 20 7.063283606918946 54.20095683082674 0
453 1 21 14.022592373659347 54.079587131274934 0
454 1 20 21.131653835537147 54.18707385564805 0
455 1 11 27.941036022483612 54.03777431569456 0
456 1 29 34.69244595735043 54.02559673724117 0
457 1 29 41.76368568294722 54.049715061071474 0
458 1 29 48.87256544646655 54.176840235093955 0
459 1 29 55.603951975739186 54.28874791506094 0
460 1 29 62.4550317373779 54.354448020666645 0
461 1 29 69.44658067495943 54.15150267178667 0
462 1 29 76.54315309881403 54.35021323344482 0
463 1 29 83.33562562569844 54.278531460468805 0
464 1 29 90.17874499445031 54.28341315303431 0
465 1 11 97.28211635205241 54.15504753565993 0
466 1 20 104.05707686532674 54.09877043736936 0
467 1 21 111.15570662073817 54.06729294664372 0
468 1 20 117.9779344888086 54.26029428814287 0
469 1 22 124.83093847917218 54.08018388796199 0
470 1 22 132.02284242620055 54.39457618804518 0
471 1 23 138.81362425990926 54.36212140081736 0
472 1 24 145.89084523631485 54.17978810238512 0
473 1 19 152.67917642888446 54.148868327557174 0
474 1 19 159.73029128764796 54.00353428242392 0
475 1 24 166.48194787286636 54.13860143715956 0
476 1 6 -3.1951228802226823 56.183414096730836 0
477 1 14 3.6920307917890636 56.34072531869605 0
478 1 13 10.687342643279395 56.29717717307589 0
479 1 12 17.578163980832954 56.059077206249086 0
480 1 6 24.252652802626166 56.12517025345889 0
481 1 11 31.44664200496872 56.05422770486847 0
482 1 6 38.117929132904884 56.048135640379535 0
483 1 6 45.38927045436107 56.05807292462738 0
484 1 6 52.095149968592864 56.08021899193342 0
485 1 6 59.11109338758969 56.32453138299397 0
486 1 6 66.18392387133125 56.06387956597508 0
487 1 6 72.78390698637187 56.17121769305983 0
488 1 6 79.89474855417953 56.184507158448646 0
489 1 6 86.994620995012 56.22605841474875 0
490 1 11 93.7135791841674 56.230593876621164 0
491 1 6 100.6235923528562 56.10842221902315 0
492 1 12 107.77349720830236 56.05246732633313 0
493 1 13 114.66159716796878 56.082544967641 0
494 1 14 121.33742528004518 56.19326537918594 0
495 1 15 128.39842095747827 56.05848132924522 0
496 1 16 135.3843383013351 56.13971265837711 0
497 1 17 142.03116405992023 56.29956609272884 0
498 1 18 149.35051679647958 56.379481321465676 0
499 1 19 156.26324757298056 56.315225512974806 0
500 1 18 162.93290907354 56.23862385789688 0
501 1 3 -3.2587804939834513 60.19294912317259 0
502 1 20 3.683477435402202 60.05204000661746 0
503 1 21 10.691299863170025 60.2262055538044 0
504 1 20 17.60834157087639 60.00497526946266 0
505 1 11 24.334970239753503 60.18866504744833 0
506 1 6 31.330273752743725 60.07069534912515 0
507 1 25 38.34190361278711 60.1771587738305 0
508 1 25 45.202924867195335 60.177018251791594 0
509 1 25 52.1917032910334 60.05068181236194 0
510 1 25 59.26524379913808 60.12618449534059 0