
14309 atoms
14896 bonds
16659 angles
15 atom types
5 bond types
11 angle types

-5.680607966083864 171.52447279080386 xlo xhi
-2.0 148.0 ylo yhi
-4 4 zlo zhi


Masses

1 0.00023997201492537314
2 0.0004913712686567164
3 0.0005599347014925373
4 0.0004799440298507463
5 0.0007313432835820895
6 0.0007084888059701493
7 0.0008227611940298508
8 0.0007541977611940299
9 0.0005256529850746268
10 0.0004685167910447761
11 0.0004799440298507463
12 0.0005027985074626866
13 0.000457089552238806
14 0.0005256529850746268
15 0.0005942164179104477

Pair Coeffs

1 0.40509979849834776 0.44544935907016964 0.5
2 0.40509979849834776 0.44544935907016964 0.5
3 0.40509979849834776 0.44544935907016964 0.5
4 0.40509979849834776 0.44544935907016964 0.5
5 0.40509979849834776 0.44544935907016964 0.5
6 0.40509979849834776 0.44544935907016964 0.5
7 0.40509979849834776 0.44544935907016964 0.5
8 0.40509979849834776 0.44544935907016964 0.5
9 0.40509979849834776 0.44544935907016964 0.5
10 0.40509979849834776 0.44544935907016964 0.5
11 0.40509979849834776 0.44544935907016964 0.5
12 0.40509979849834776 0.44544935907016964 0.5
13 0.40509979849834776 0.44544935907016964 0.5
14 0.40509979849834776 0.44544935907016964 0.5
15 0.40509979849834776 0.44544935907016964 0.5

Bond Coeffs

1 95.98880597014924 0.5
2 100.55970149253733 0.5
3 91.4179104477612 0.5
4 105.13059701492537 0.5
5 118.84328358208955 0.5

Angle Coeffs

1 7.370221196245828 180
2 8.474043331997152 180
3 6.36667417881078 180
4 9.682915591698846 180
5 13.987583170847286 180
6 7.883682284155469 120
7 7.682186218435144 120
8 11.44383044344544 120
9 7.370221196245828 120
10 6.831790692308282 120
11 9.682915591698846 120

Atoms

1 1 1 -3.3938424345323543 0.2787823480521064 0
2 1 2 3.5650121094720015 0.2759270722526829 0
3 1 2 10.449225013471098 0.044446192280627586 0
4 1 3 17.385723344482756 0.11146420280305054 0
5 1 3 24.266347362670324 0.03205737569242855 0
6 1 2 31.544238233836683 0.14359643069458072 0
7 1 2 38.499423485001195 0.25074009999113767 0
8 1 4 45.17169517537397 0.06459824200821528 0
9 1 4 52.29117160007389 0.05696113322186563 0
10 1 4 59.244276385735624 0.1429583968496044 0
11 1 2 65.98576267535255 0.019974516266381404 0
12 1 2 73.14220815156592 0.06775631788510932 0
13 1 3 79.97782780253435 0.01583556793387766 0
14 1 3 86.98132992879864 0.2222919750871415 0
15 1 2 93.87800348413387 0.39977994601514444 0
16 1 2 100.73588298254798 0.17041863338391733 0
17 1 4 107.40926172829732 0.2717348954238454 0
18 1 4 114.37347610753363 0.1978405833856116 0
19 1 4 121.24369108258635 0.3101143431275433 0
20 1 2 128.39251414191008 0.1799838814795418 0
21 1 2 135.469750295042 0.11875428463746732 0
22 1 3 142.40555816528513 0.053959725098021855 0
23 1 3 149.150025486391 0.10569656897722202 0
24 1 2 155.98553601111658 0.05455357809231196 0
25 1 2 163.18970483213806 0.3267307966643886 0
26 1 5 0.39883756957859834 2.251264659086939 0
27 1 6 7.042259837534671 2.302800902138245 0
28 1 7 14.212700451396984 2.2631414170436055 0
29 1 7 21.08339256309108 2.1664782465831904 0
30 1 7 27.845398033869397 2.056621243181452 0
31 1 6 34.91029443579469 2.007774907546444 0
32 1 5 41.847932939536726 2.054875633555719 0
33 1 6 48.71111087109702 2.2812801719916993 0
34 1 6 55.52323970853908 2.3807690597360134 0
35 1 5 62.74334464956158 2.22094702526175 0
36 1 6 69.50770998421339 2.2483647090748637 0
37 1 7 76.40793437927637 2.1168663738596765 0
38 1 7 83.50486540158926 2.190777749721961 0
39 1 7 90.17844847691488 2.33755036256431 0
40 1 6 97.07250354025349 2.316425428904455 0
41 1 5 104.11205454790816 2.091230641208149 0
42 1 6 110.8795697303898 2.3253744706092285 0
43 1 6 118.15298866926183 2.2000821709408704 0
44 1 5 124.7633636642112 2.021478516072825 0
45 1 6 131.76544300873257 2.1547927830888076 0
46 1 7 138.93192593002541 2.307554131576239 0
47 1 7 145.63964370077576 2.2620677104409888 0
48 1 7 152.45277528110518 2.080953871681791 0
49 1 6 159.57390322272522 2.309097016003649 0
50 1 5 166.43662788652395 2.2595401619731623 0
51 1 6 0.2533364272143297 6.327741934697517 0
52 1 5 6.951961040334001 6.036936720890981 0
53 1 8 14.011060029442762 6.287833022817587 0
54 1 7 21.062223447334777 6.04505879574207 0
55 1 8 28.044103367942252 6.018818163053986 0
56 1 5 35.00670329927959 6.273594548633418 0
57 1 6 41.87828402311502 6.092670262470678 0
58 1 8 48.54602002727076 6.353874478411 0
59 1 8 55.70352883102444 6.295321897396193 0
60 1 6 62.430656242449956 6.035127431819831 0
61 1 5 69.32433614432827 6.347171060592175 0
62 1 8 76.59495937188524 6.255823064323446 0
63 1 7 83.4196684245077 6.285067633113906 0
64 1 8 90.2493365632611 6.011615097534516 0
65 1 5 97.30866300294299 6.17868616968318 0
66 1 6 104.02302691319493 6.2522253948280735 0
67 1 8 110.88762582616344 6.164067186413927 0
68 1 8 118.13569707618689 6.389796009422875 0
69 1 6 124.78869415094925 6.0817352895778445 0
70 1 5 131.7137688345669 6.227076416935015 0
71 1 8 138.87769459929453 6.148256699629468 0
72 1 7 145.61169363525448 6.341530704247556 0
73 1 8 152.7642480182521 6.2627129650543525 0
74 1 5 159.5545452364809 6.014438688439804 0
75 1 6 166.34562934435715 6.302470316330539 0
76 1 2 -3.3283852008551156 8.211148354552579 0
77 1 5 3.7975421473430306 8.340678385498537 0
78 1 6 10.58870761019047 8.128432378743277 0
79 1 8 17.617859164253694 8.182736494427314 0
80 1 8 24.2677799669544 8.396967269897559 0
81 1 6 31.470687614738384 8.283180136698917 0
82 1 5 38.49401818743547 8.328880682354859 0
83 1 8 45.32328738827112 8.09985686061853 0
84 1 7 52.25717173767078 8.029569702054504 0
85 1 8 59.09346509500138 8.286306851582545 0
86 1 5 66.13941613376674 8.1944147721399 0
87 1 6 73.02733595305865 8.316706059074308 0
88 1 8 79.90343643646925 8.171716857068118 0
89 1 8 86.7635159062607 8.37931810976215 0
90 1 6 93.65388983807475 8.131552805992335 0
91 1 5 100.56147960657948 8.206559391716466 0
92 1 8 107.78267181234087 8.191885498978268 0
93 1 7 114.50108597311434 8.085086172493375 0
94 1 8 121.37881265955767 8.029771603543496 0
95 1 5 128.1764324750873 8.18895742923586 0
96 1 6 135.37809310381297 8.137024138893947 0
97 1 8 142.0745786566087 8.316321620111363 0
98 1 8 149.03732790282587 8.142355759251819 0
99 1 6 156.10780085735615 8.390633834536864 0
100 1 5 162.86090215282547 8.178794159297238 0
101 1 9 -3.1872005334695896 12.362525035542888 0
102 1 6 3.716241420009864 12.069493537216546 0
103 1 5 10.628039441905587 12.012149172955 0
104 1 6 17.62609294830405 12.135232508316738 0
105 1 6 24.25645040850303 12.291338538806126 0
106 1 5 31.294622650211203 12.120305460878765 0
107 1 6 38.456354753993075 12.180050832285207 0
108 1 7 45.41417332268173 12.170267877666847 0
109 1 7 51.9794450635232 12.001821701303397 0
110 1 7 58.94366476746084 12.00543375157631 0
111 1 6 65.9808878071574 12.121382679218984 0
112 1 5 72.93110609472915 12.137057924659082 0
113 1 6 79.83668742469419 12.216085786164259 0
114 1 6 86.71902946327319 12.08618458156109 0
115 1 5 93.92832790398337 12.182635943910565 0
116 1 6 100.81839704754779 12.091138812488897 0
117 1 7 107.44530950911205 12.314852749713598 0
118 1 7 114.38961425447668 12.214782289651117 0
119 1 7 121.47269991501761 12.14240820226331 0
120 1 6 128.18725842705697 12.342176879573403 0
121 1 5 135.38790224326627 12.076044312894489 0
122 1 6 142.12034530635472 12.270998794115975 0
123 1 6 149.22125881827765 12.314426625003673 0
124 1 5 156.2219012663589 12.333848004512943 0
125 1 6 163.01776967047527 12.380041648603186 0
126 1 8 0.28370342578040186 14.230923352195083 0
127 1 5 7.063800297011083 14.09309102802492 0
128 1 5 14.128340616121857 14.128480420215219 0
129 1 5 20.974796573285264 14.308240940544295 0
130 1 5 28.082462293324937 14.214664763834538 0
131 1 5 34.717411206904465 14.139388000973645 0
132 1 8 41.860721631946184 14.150709326753697 0
133 1 7 48.85720738385915 14.319869157770647 0
134 1 7 55.4806050610105 14.10572225535962 0
135 1 8 62.59009875440602 14.344502107002354 0
136 1 5 69.36721151780783 14.04351838273349 0
137 1 5 76.42736371733413 14.037091749145766 0
138 1 5 83.38217445598552 14.038641986722943 0
139 1 5 90.28535004900007 14.39405478787852 0
140 1 5 97.07693905513395 14.161140474695536 0
141 1 8 103.96633196077536 14.089577279881496 0
142 1 7 111.18472615315089 14.1369829195827 0
143 1 7 117.8969700595658 14.178393904345468 0
144 1 8 124.91636791387756 14.16669316535892 0
145 1 5 131.87039770084 14.231751531406102 0
146 1 5 138.6797518970157 14.095541491539334 0
147 1 5 145.54517697859282 14.346397785161905 0
148 1 5 152.52002575429412 14.063947552936709 0
149 1 5 159.43344063377697 14.214423468179614 0
150 1 8 166.36612053880157 14.312746495313263 0
151 1 8 0.04241058581166568 18.07280704977511 0
152 1 5 7.299913495008247 18.220791080754392 0
153 1 5 13.924694525816763 18.35665270182454 0
154 1 5 20.85866347832152 18.0019551540661 0
155 1 5 27.762829837672182 18.088264805751628 0
156 1 5 34.897347261514 18.157668379906674 0
157 1 8 41.64509820820768 18.12902114379897 0
158 1 7 48.706569532302055 18.03068311745379 0
159 1 7 55.53212764854017 18.244374550675644 0
160 1 8 62.743056507357636 18.147504307815773 0
161 1 5 69.46870163547301 18.132647163205135 0
162 1 5 76.45485194927728 18.240642607115813 0
163 1 5 83.28620671907315 18.34380810203614 0
164 1 5 90.08964967746333 18.34936552349411 0
165 1 5 97.23137405063333 18.394306908005948 0
166 1 8 104.03203566918796 18.132594232789774 0
167 1 7 111.10482255863747 18.174269427285083 0
168 1 7 118.01876135831387 18.31994792066405 0
169 1 8 124.73685466658634 18.18655231472569 0
170 1 5 131.82909010310948 18.208899976342835 0
171 1 5 138.75507474983948 18.35303266147317 0
172 1 5 145.6168927096447 18.06937462151954 0
173 1 5 152.5940014187918 18.265854311363313 0
174 1 5 159.40636788713374 18.38354164467616 0
175 1 8 166.36455111369114 18.32893204434582 0
176 1 9 -3.1919481143516872 20.15571288889713 0
177 1 6 3.497314472153476 20.14737065838752 0
178 1 5 10.444549477021308 20.379771485988456 0
179 1 6 17.591799673054332 20.1125129522419 0
180 1 6 24.45616469350831 20.155074690805062 0
181 1 5 31.268306084509398 20.23686348928339 0
182 1 6 38.47648681942871 20.39726640089308 0
183 1 7 45.40955463826738 20.11290606904844 0
184 1 7 52.13025270526883 20.348225486342244 0
185 1 7 58.93528210899227 20.23630209431923 0
186 1 6 65.9366434823241 20.04694159000149 0
187 1 5 72.8597549920918 20.351204378846866 0
188 1 6 79.85579470647734 20.359698288238185 0
189 1 6 86.97728522649301 20.172409624510124 0
190 1 5 93.89302772303738 20.27894834312988 0
191 1 6 100.47524846902239 20.000049722329894 0
192 1 7 107.78508020460824 20.329440361249727 0
193 1 7 114.5803768674027 20.10351996753762 0
194 1 7 121.45965950712609 20.32892652109686 0
195 1 6 128.20080268796812 20.148048941005992 0
196 1 5 135.42169849157662 20.046275269161804 0
197 1 6 142.23491874590022 20.095304029756416 0
198 1 6 148.97745602118124 20.341869264150013 0
199 1 5 156.18659083350647 20.205430455121288 0
200 1 6 162.93504585787417 20.369516039767397 0
201 1 2 -3.212157852638023 24.248660276257727 0
202 1 5 3.6125713028003004 24.27336445021916 0
203 1 6 10.76841682783404 24.275208468730252 0
204 1 8 17.388998054814973 24.252612651324007 0
205 1 8 24.420047494907298 24.15897161602004 0
206 1 6 31.35909602385346 24.156945571842538 0
207 1 5 38.35805085319144 24.157859539019864 0
208 1 8 45.422093467221984 24.00702984752091 0
209 1 7 52.05101377106038 24.396170169443483 0
210 1 8 59.27156223104913 24.3689576240131 0
211 1 5 65.85591505051988 24.0768292714148 0
212 1 6 73.02493817360974 24.09233895038247 0
213 1 8 79.9025571811156 24.168156030434023 0
214 1 8 86.63985955045258 24.308639033549834 0
215 1 6 93.8613635436467 24.175882619728267 0
216 1 5 100.8268541505756 24.349716715573987 0
217 1 8 107.42995863721278 24.140656246895585 0
218 1 7 114.42325219974947 24.06319293341293 0
219 1 8 121.2440688336861 24.312390210006143 0
220 1 5 128.48203755699285 24.239120054103573 0
221 1 6 135.37361401157162 24.294678506170378 0
222 1 8 142.31350130342696 24.250485916366486 0
223 1 8 149.19643643045725 24.182927004520845 0
224 1 6 155.95374209465103 24.191612470644568 0
225 1 5 163.18166645447067 24.030839509291575 0
226 1 6 0.2615404965420472 26.37951241560331 0
227 1 5 6.976276976003761 26.291281037550817 0
228 1 8 13.936556288737062 26.11828594378694 0
229 1 7 21.00278764736584 26.325135161776515 0
230 1 8 28.037899071522144 26.246251206210854 0
231 1 5 34.88280786885789 26.094998676221643 0
232 1 6 41.87320810916934 26.127072159886353 0
233 1 8 48.68100557571134 26.305929516065802 0
234 1 8 55.48958846138281 26.000571815322676 0
235 1 6 62.712766365460425 26.26196386651449 0
236 1 5 69.47193749087117 26.250984335551344 0
237 1 8 76.54588903964454 26.30222711470275 0
238 1 7 83.16279720956707 26.390018209738002 0
239 1 8 90.30987270074301 26.04833777222096 0
240 1 5 97.31219314228811 26.061651048332898 0
241 1 6 104.20483815677436 26.15113190336827 0
242 1 8 111.1119528556681 26.214071024202944 0
243 1 8 118.01623574700362 26.1952796374547 0
244 1 6 125.06405777215427 26.289453040117504 0
245 1 5 131.94399885870854 26.324394769771875 0
246 1 8 138.8766944722085 26.160025194242262 0
247 1 7 145.6506505035269 26.377669060362038 0
248 1 8 152.67239160456526 26.23359637052289 0
249 1 5 159.46069216247065 26.09796715904839 0
250 1 6 166.5615198587381 26.32833625785244 0
251 1 5 0.1632225357966035 30.044112926079936 0
252 1 6 7.295795048323941 30.074889462488184 0
253 1 7 13.865244890079607 30.029589645131207 0
254 1 7 21.124682057467655 30.2626531483245 0
255 1 7 27.999775339656868 30.359322947096416 0
256 1 6 34.887894126348804 30.205817504203388 0
257 1 5 41.700259783280806 30.240032606222865 0
258 1 6 48.85757389871235 30.131944819395745 0
259 1 6 55.43004677328265 30.373671292269698 0
260 1 5 62.58817938399886 30.0361427764862 0
261 1 6 69.35964508307339 30.11950268893364 0
262 1 7 76.31733936143324 30.296818947000258 0
263 1 7 83.30437649100593 30.014479563715675 0
264 1 7 90.23715915563906 30.05251623286958 0
265 1 6 97.08277619476755 30.371484551724816 0
266 1 5 104.17468437102544 30.099455336880627 0
267 1 6 111.1776159530739 30.05075465760126 0
268 1 6 118.1511487199461 30.08688570039139 0
269 1 5 124.8450751100128 30.191609483092673 0
270 1 6 131.78782686196513 30.224982251608708 0
271 1 7 138.9346064864894 30.040771211871807 0
272 1 7 145.82129022246593 30.11073673578517 0
273 1 7 152.43635783621485 30.37659283604573 0
274 1 6 159.65211069773358 30.339470560068037 0
275 1 5 166.51401294755271 30.333884837805087 0
276 1 2 -3.1954760192977165 32.10300525742093 0
277 1 5 3.579443300904725 32.12700350507156 0
278 1 8 10.723662199905192 32.00941353983835 0
279 1 7 17.423822524424516 32.34441455766774 0
280 1 7 24.519903186874277 32.24657036449427 0
281 1 8 31.327782314220453 32.19122587499569 0
282 1 5 38.368155731247306 32.286322820555824 0
283 1 5 45.398386295515934 32.39695145072554 0
284 1 5 52.310967867606955 32.2701449397915 0
285 1 5 59.166926661056365 32.23991583265335 0
286 1 5 66.13600203036214 32.19264639201644 0
287 1 8 73.06022918665377 32.18151229831349 0
288 1 7 79.79411947784682 32.08603345992006 0
289 1 7 86.69557904460528 32.25363783116278 0
290 1 8 93.92626544818899 32.03971314142547 0
291 1 5 100.78567661012691 32.28044893934789 0
292 1 5 107.5146788420986 32.2898804237065 0
293 1 5 114.40888770106099 32.079099622682854 0
294 1 5 121.46205423024115 32.32519115837552 0
295 1 5 128.41731793773766 32.3810387440665 0
296 1 8 135.12122787828613 32.01781627404382 0
297 1 7 142.11314453842465 32.37745380974203 0
298 1 7 149.1129020343945 32.22753732957035 0
299 1 8 156.13981252839991 32.34196673557748 0
300 1 5 162.8480848473745 32.041771343607756 0
301 1 2 -3.236211918339554 36.14528091118411 0
302 1 5 3.691700788374712 36.169434578235126 0
303 1 8 10.514049285537551 36.10725692115774 0
304 1 7 17.520210277048747 36.17355884115886 0
305 1 7 24.452372697266668 36.177520367343845 0
306 1 8 31.48407851143578 36.02302900428914 0
307 1 5 38.173165921172505 36.37411106333039 0
308 1 5 45.29699301633059 36.048896233987634 0
309 1 5 52.350590485337584 36.35090791644726 0
310 1 5 59.05180784617113 36.03395938129822 0
311 1 5 66.1863939689278 36.07309616063295 0
312 1 8 72.97124302771857 36.38090442668956 0
313 1 7 80.02886720901859 36.000178572574434 0
314 1 7 86.98337818924837 36.00929155194821 0
315 1 8 93.8904379654054 36.30732626003869 0
316 1 5 100.68788369809741 36.107454662105816 0
317 1 5 107.39195862606273 36.33420143889599 0
318 1 5 114.58151864247932 36.189169951424354 0
319 1 5 121.37853664432612 36.15032144148391 0
320 1 5 128.4818285121228 36.30323987932643 0
321 1 8 135.28279417995188 36.29408775005878 0
322 1 7 142.2895408097187 36.08609452015712 0
323 1 7 149.2818899863154 36.131048805265124 0
324 1 8 156.26481683386612 36.164803691581746 0
325 1 5 163.0973710436878 36.267902904872244 0
326 1 5 0.09303362563481876 38.188689680275 0
327 1 6 7.243057223252619 38.375873109877425 0
328 1 7 14.101590300999495 38.39958573644934 0
329 1 7 20.830117921925208 38.07010490714053 0
330 1 7 27.942768669634912 38.33177799299769 0
331 1 6 34.71271740699556 38.3756576909027 0
332 1 5 41.746673329023295 38.31331638365664 0
333 1 6 48.5432424164716 38.198737501184254 0
334 1 6 55.6253578542939 38.22375787682014 0
335 1 5 62.730596159249565 38.27519961766478 0
336 1 6 69.5619957741033 38.265065380742925 0
337 1 7 76.23717069913887 38.33491069463303 0
338 1 7 83.35294004728027 38.30657143924619 0
339 1 7 90.19386151559351 38.02764721255847 0
340 1 6 97.22115018778665 38.27913986389256 0
341 1 5 103.92889956471618 38.261162517350016 0
342 1 6 111.1242573848952 38.075184238401384 0
343 1 6 117.89371796333134 38.16708773261531 0
344 1 5 124.88677707020396 38.377255724503506 0
345 1 6 131.96228653334015 38.34175964950911 0
346 1 7 138.5956847203081 38.1334933005308 0
347 1 7 145.72698859348395 38.026308756229284 0
348 1 7 152.7992358334109 38.27774979759384 0
349 1 6 159.4401957451791 38.24511795843856 0
350 1 5 166.3316500726833 38.02091041252769 0
351 1 6 0.08419439936663294 42.082028065431054 0
352 1 5 7.118717467022756 42.028848595440984 0
353 1 8 14.001823698287595 42.04882983486758 0
354 1 7 20.9911524725675 42.20214871341776 0
355 1 8 27.7362142369528 42.39998390055174 0
356 1 5 34.98856379978979 42.08578146148214 0
357 1 6 41.88241676003663 42.14015953716532 0
358 1 8 48.58997413779055 42.060828458480316 0
359 1 8 55.50107654021305 42.117902234428435 0
360 1 6 62.685493510647326 42.3864962493383 0
361 1 5 69.62419437179915 42.07119113485265 0
362 1 8 76.54976913176066 42.309991470343626 0
363 1 7 83.53826978789998 42.387756229676334 0
364 1 8 90.19244774362475 42.10504696956896 0
365 1 5 97.20636234544277 42.19913702670979 0
366 1 6 103.99521884780496 42.30567136456953 0
367 1 8 111.04874865994505 42.21440731768438 0
368 1 8 117.88669731424608 42.376254163191675 0
369 1 6 124.72212689222482 42.09934054847176 0
370 1 5 132.0153455900681 42.303239793614125 0
371 1 8 138.58668637141756 42.17245395129686 0
372 1 7 145.84905588800004 42.067359758160755 0
373 1 8 152.64720821806648 42.0678682271768 0
374 1 5 159.52081285330348 42.29168382666495 0
375 1 6 166.51937240087983 42.26138130523831 0
376 1 2 -3.261590731291558 44.36274519922801 0
377 1 5 3.477858712981826 44.32579281222672 0
378 1 6 10.458172868345763 44.27129883742858 0
379 1 8 17.47028725693148 44.13970083560591 0
380 1 8 24.494831507085138 44.314256671503706 0
381 1 6 31.219977152663724 44.217177021077816 0
382 1 5 38.31333577076923 44.136321068870004 0
383 1 8 45.2803759411122 44.272565952663264 0
384 1 7 52.15042265048958 44.15943081093424 0
385 1 8 59.22526109791606 44.08176409288591 0
386 1 5 65.91771040609886 44.09908759918394 0
387 1 6 73.13322035726297 44.31612708357669 0
388 1 8 79.97578312002574 44.386454021696316 0
389 1 8 86.9754184471481 44.26424090057421 0
390 1 6 93.7015821568594 44.097307255663864 0
391 1 5 100.65464670179662 44.04081251172173 0
392 1 8 107.64289896963801 44.397467244089825 0
393 1 7 114.41485230665445 44.215945880095475 0
394 1 8 121.61977996215676 44.190008405116366 0
395 1 5 128.17807835085992 44.049616971775734 0
396 1 6 135.41426281898447 44.29289345997131 0
397 1 8 142.26408790965175 44.15233143447418 0
398 1 8 149.29061923171923 44.05883602193029 0
399 1 6 156.04870255404478 44.089478875212954 0
400 1 5 162.92637970349801 44.352844210552625 0
401 1 9 -3.1400406004440713 48.34638639478288 0
402 1 6 3.6754253827790455 48.12068078907991 0
403 1 5 10.482931877998588 48.168115377839676 0
404 1 6 17.383510924241765 48.392719924598666 0
405 1 6 24.516670704171634 48.36615353494651 0
406 1 5 31.282147566530995 48.078846989120976 0
407 1 6 38.12321621734585 48.338898200700456 0
408 1 7 45.19905924218661 48.17438487314045 0
409 1 7 51.984264334056 48.25304365140543 0
410 1 7 59.00844660757976 48.38967039990959 0
411 1 6 66.11135129316538 48.1024059090778 0
412 1 5 73.14137645208254 48.17584028282636 0
413 1 6 79.69214344007503 48.15995253967195 0
414 1 6 86.78863067687304 48.220584938453634 0
415 1 5 93.7362536317154 48.004322399552144 0
416 1 6 100.52217304448476 48.315404118524775 0
417 1 7 107.61388671595452 48.235986829055335 0
418 1 7 114.42305126150895 48.07085314173546 0
419 1 7 121.60135123018902 48.31489508423208 0
420 1 6 128.2131350331501 48.0789808655298 0
421 1 5 135.45372630839378 48.2446834887509 0
422 1 6 142.35985730018578 48.34008881634872 0
423 1 6 149.20019549931223 48.05474524434403 0
424 1 5 156.06648272329068 48.375601245886564 0
425 1 6 163.12787266508448 48.012218023613435 0
426 1 8 0.298014921415687 50.077925687502805 0
427 1 5 7.0196995177063455 50.319292681637606 0
428 1 5 13.967350233916461 50.27539502148648 0
429 1 5 20.940137700577086 50.02996809333513 0
430 1 5 27.826626015311206 50.36517688243634 0
431 1 5 34.897875238327565 50.07254286782663 0
432 1 8 41.68078955214694 50.39488881663022 0
433 1 7 48.814014179143115 50.111227672972774 0
434 1 7 55.78590038146479 50.248824339470666 0
435 1 8 62.662834977007954 50.12553803020549 0
436 1 5 69.42264453286396 50.302369614087 0
437 1 5 76.40551475615433 50.176793275428494 0
438 1 5 83.38037450141441 50.132491029849994 0
439 1 5 90.252851950686 50.21633020640759 0
440 1 5 97.32083614214994 50.22289425974576 0
441 1 8 104.21205355460965 50.06530078959766 0
442 1 7 110.91732018285063 50.0439637547517 0
443 1 7 117.80765765066485 50.03448009518899 0
444 1 8 124.86734674976321 50.299340098544974 0
445 1 5 131.6873630690342 50.00850116078494 0
446 1 5 138.9053023939032 50.14915938702387 0
447 1 5 145.59300500383765 50.21263575276215 0
448 1 5 152.5373455021128 50.10541366346121 0
449 1 5 159.46642113823657 50.0719229517739 0
450 1 8 166.46511963590856 50.27439143251898 0
451 1 8 0.3356694146655023 54.15624164915156 0
452 1 5 7.0048869577785355 54.15650207873511 0
453 1 5 14.095051806376569 54.016042602022196 0
454 1 5 21.00234372693028 54.18028427201823 0
455 1 5 27.945157475544832 54.34087725734506 0
456 1 5 34.858258599353235 54.2115343623084 0
457 1 8 41.96023660898974 54.075440660334195 0
458 1 7 48.74051918375612 54.318943280302804 0
459 1 7 55.789230389481666 54.18138770286077 0
460 1 8 62.53901083153059 54.34868523666325 0
461 1 5 69.47783487237132 54.00152405862862 0
462 1 5 76.5452823876077 54.37427477858649 0
463 1 5 83.33501812108003 54.24863798804962 0
464 1 5 90.4598284339601 54.30787965839251 0
465 1 5 97.18372680346374 54.04165964545695 0
466 1 8 104.25985797403291 54.04929041331754 0
467 1 7 111.06318955051329 54.11372162169905 0
468 1 7 118.1092181517462 54.100864903281206 0
469 1 8 124.7980498352418 54.13804045001173 0
470 1 5 131.69448489805032 54.33401505920068 0
471 1 5 138.8813475089001 54.24549534208167 0
472 1 5 145.551957970111 54.13931681043363 0
473 1 5 152.5645363777532 54.18448607380877 0
474 1 5 159.7032367495469 54.192653152519895 0
475 1 8 166.30285662942165 54.187782202982845 0
476 1 9 -3.112826971284654 56.31503696845346 0
477 1 6 3.6042012611001404 56.130093769218426 0
478 1 5 10.681811200934426 56.222798902132126 0
479 1 6 17.36758715288894 56.010686588607406 0
480 1 6 24.29618771192384 56.13576226178824 0
481 1 5 31.45879688320257 56.35652056946695 0
482 1 6 38.22166470659799 56.3596009952716 0
483 1 7 45.19251300782727 56.01137777158336 0
484 1 7 52.299045325822966 56.10241504526205 0
485 1 7 59.1092903292638 56.308696222821126 0
486 1 6 65.9443900995157 56.38511891895416 0
487 1 5 72.9787579398453 56.07503097447989 0
488 1 6 79.75776039027512 56.09133395662573 0
489 1 6 86.85761868761827 56.18011335036971 0
490 1 5 93.68769071186529 56.182250493924585 0
491 1 6 100.77186710046898 56.209523808070344 0
492 1 7 107.65335747320685 56.100334533520275 0
493 1 7 114.55853446197109 56.32329505238657 0
494 1 7 121.38337231726938 56.089123669703525 0
495 1 6 128.2391955532261 56.04484061543594 0
496 1 5 135.24977843626132 56.30364808708831 0
497 1 6 142.14818244264245 56.25931370847084 0
498 1 6 149.2708503234682 56.16733300117379 0
499 1 5 156.10813208726452 56.00704096405339 0
500 1 6 163.05640830225164 56.159545747608384 0
501 1 2 -3.45591985271214 60.336362345590885 0
502 1 5 3.502235313610515 60.00355060863247 0
503 1 6 10.5213092437423 60.004994793718765 0
504 1 8 17.417766372368085 60.27953685587001 0
505 1 8 24.37988085047225 60.28625724663056 0
506 1 6 31.531524436463254 60.078371063988165 0
507 1 5 38.31547788895106 60.23853292582045 0
508 1 8 45.21974202239471 60.21092781887059 0
509 1 7 51.995814699494 60.23692154689226 0
510 1 8 59.152957395103186 60.12466853803129 0
511 1 5 66.12303973527368 60.39902970823425 0
512 1 6 73.0554849171395 60.360765481468384 0
513 1 8 79.85956507303403 60.228967475084005 0
514 1 8 86.78871713898026 60.38248962628271 0
515 1 6 93.60746415098748 60.22731867529959 0
516 1 5 100.78357890671164 60.01055768686332 0
517 1 8 107.78235878781051 60.17643361595122 0
518 1 7 114.45551408456052 60.38225011837619 0
519 1 8 121.288599337216 60.02871414032037 0
520 1 5 128.49576055368172 60.050105543560115 0
521 1 6 135.1466329680927 60.32152658681779 0
522 1 8 142.38163595067556 60.24534417298423 0
523 1 8 149.3423930080677 60.04797006006559 0
524 1 6 156.14502474497124 60.213352295938186 0
525 1 5 163.00849642089943 60.2622071646555 0
526 1 6 0.17346627777426726 62.2955370632614 0
527 1 5 7.10300866719804 62.241220995823596 0
528 1 8 13.997245225278709 62.368995131488255 0
529 1 7 20.84495040041578 62.34877933828925 0
530 1 8 27.795576204658985 62.0914458120032 0
531 1 5 34.85594507952897 62.07016929743046 0
532 1 6 41.844763390614325 62.19526139293409 0
533 1 8 48.61810653858787 62.12277969551565 0
534 1 8 55.773579160953695 62.35566413670921 0
535 1 6 62.48957562617494 62.3709268603799 0
536 1 5 69.3617089958591 62.32077265705433 0
537 1 8 76.48485600473606 62.38460476207413 0
538 1 7 83.25353712699928 62.34992363488987 0
539 1 8 90.2908057504377 62.380789488257385 0
540 1 5 97.16397920177748 62.37902680320796 0
541 1 6 104.21407958014817 62.02387494348257 0
542 1 8 110.87452821948577 62.06964525693286 0
543 1 8 118.03250338217758 62.23359496307489 0
544 1 6 124.78396785731468 62.12606548970328 0
545 1 5 131.74311163206912 62.00018506564902 0
546 1 8 138.88152683052587 62.39931035379574 0
547 1 7 145.5666130742968 62.07733305862668 0
548 1 8 152.7137368465768 62.21964533034286 0
549 1 5 159.51926572330734 62.055797129658856 0
550 1 6 166.5557535670688 62.0440703037752 0
551 1 5 0.3747204640754602 66.02264493840045 0
552 1 6 7.190010763615924 66.13508596955809 0
553 1 7 14.030228216297209 66.39199031224774 0
554 1 7 21.183468218210518 66.1267665956298 0
555 1 7 28.058644993708747 66.33207995661664 0
556 1 6 35.04022275188874 66.04314002548233 0
557 1 5 41.895511166524116 66.24951706283372 0
558 1 6 48.558713864904185 66.11407988963029 0
559 1 6 55.75846305722508 66.00017523901212 0
560 1 5 62.48358474112064 66.14362988633039 0
561 1 6 69.55037945798709 66.17479718478195 0
562 1 7 76.29606152685884 66.3361246726221 0
563 1 7 83.37571409524128 66.19470233866963 0
564 1 7 90.1816504424798 66.14873505389781 0
565 1 6 97.31062018133832 66.01788047030786 0
566 1 5 104.21697111500048 66.2735981817882 0
567 1 6 110.8808458489124 66.12409551022765 0
568 1 6 117.82662182763472 66.19583525650171 0
569 1 5 124.72262849904237 66.0073512062473 0
570 1 6 131.94865389443723 66.00778779935828 0
571 1 7 138.64909616710412 66.37731668153401 0
572 1 7 145.836946454181 66.30079361418491 0
573 1 7 152.62873175865204 66.25894824858608 0
574 1 6 159.66830882511314 66.3970944177853 0
575 1 5 166.571341788976 66.08343076412781 0
576 1 2 -3.4019883518297944 68.27760368175728 0
577 1 5 3.480011319212778 68.07817471047306 0
578 1 8 10.6870958599607 68.02913946962487 0
579 1 7 17.36229003779694 68.25489476745766 0
580 1 7 24.541260105838898 68.26064406980908 0
581 1 8 31.34735903127451 68.07648482722625 0
582 1 5 38.41180640746034 68.39865162364146 0
583 1 5 45.41500816356686 68.25366153656056 0
584 1 5 51.96865870478054 68.35593877962185 0
585 1 5 58.91704544532905 68.06413218125107 0
586 1 5 65.957060613574 68.26395134338199 0
587 1 8 72.88013745266235 68.0549618622422 0
588 1 7 79.9147937357545 68.08535272037865 0
589 1 7 86.83918188343631 68.15151807642523 0
590 1 8 93.53632683987841 68.37300920966338 0
591 1 5 100.49129458788983 68.16373232890388 0
592 1 5 107.44726545220061 68.09001592635283 0
593 1 5 114.36501989300915 68.3787605357104 0