
14309 atoms
14896 bonds
16659 angles
24 atom types
8 bond types
21 angle types

-5.680607966083864 171.52447279080386 xlo xhi
-2.0 148.0 ylo yhi
-4 4 zlo zhi


Masses

1 0.00021479107921045884
2 0.000501179184824404
3 0.00040571648295308895
4 0.0006682389130992052
5 0.00045344783388874646
6 0.0006443732376313765
7 0.0004295821584209177
8 0.0007159702640348628
9 0.0005727762112278902
10 0.0009068956677774929
11 0.0007637016149705203
12 0.0008591643168418355
13 0.0009546270187131505
14 0.0009546270187131504
15 0.0007159702640348629
16 0.0005250448602922328
17 0.0004295821584209177
18 0.0005727762112278902
19 0.0002863881056139451
20 0.0005250448602922328
21 0.0007637016149705203
22 0.0003818508074852602
23 0.0006682389130992053
24 0.0006205075621635478

Pair Coeffs

1 0.40509979849834776 0.44544935907016964 0.5
2 0.40509979849834776 0.44544935907016964 0.5
3 0.40509979849834776 0.44544935907016964 0.5
4 0.40509979849834776 0.44544935907016964 0.5
5 0.40509979849834776 0.44544935907016964 0.5
6 0.40509979849834776 0.44544935907016964 0.5
7 0.40509979849834776 0.44544935907016964 0.5
8 0.40509979849834776 0.44544935907016964 0.5
9 0.40509979849834776 0.44544935907016964 0.5
10 0.40509979849834776 0.44544935907016964 0.5
11 0.40509979849834776 0.44544935907016964 0.5
12 0.40509979849834776 0.44544935907016964 0.5
13 0.40509979849834776 0.44544935907016964 0.5
14 0.40509979849834776 0.44544935907016964 0.5
15 0.40509979849834776 0.44544935907016964 0.5
16 0.40509979849834776 0.44544935907016964 0.5
17 0.40509979849834776 0.44544935907016964 0.5
18 0.40509979849834776 0.44544935907016964 0.5
19 0.40509979849834776 0.44544935907016964 0.5
20 0.40509979849834776 0.44544935907016964 0.5
21 0.40509979849834776 0.44544935907016964 0.5
22 0.40509979849834776 0.44544935907016964 0.5
23 0.40509979849834776 0.44544935907016964 0.5
24 0.40509979849834776 0.44544935907016964 0.5

Bond Coeffs

1 85.91643168418354 0.5
2 114.55524224557804 0.5
3 57.27762112278902 0.5
4 105.00897205844655 0.5
5 152.74032299410408 0.5
6 76.37016149705204 0.5
7 133.64778261984108 0.5
8 124.10151243270955 0.5

Angle Coeffs

1 5.285029895085089 180
2 12.52747826983132 180
3 1.565934783728915 180
4 9.649348134922159 180
5 29.694763306266847 180
6 3.711845413283356 180
7 19.893171511815485 180
8 15.927586665983457 180
9 7.433888204075731 120
10 2.6945820260416116 120
11 17.621068335586912 120
12 5.3613307054586485 120
13 17.69087140718827 120
14 5.285029895085089 120
15 2.416013666324611 120
16 14.56559055118524 120
17 9.649348134922159 120
18 5.726847209065745 120
19 12.52747826983132 120
20 12.995244801092712 120
21 15.927586665983457 120

Atoms

1 1 1 -3.066483126957932 0.25359328846155954 0
2 1 2 3.7113531766906935 0.2527128873923497 0
3 1 3 10.575564017628128 0.22158877537168986 0
4 1 4 17.634911986715625 0.047313732237467265 0
5 1 5 24.377117643017574 0.09255558921481782 0
6 1 6 31.399441414441725 0.23531877708483961 0
7 1 6 38.472709855774106 0.04708274004357249 0
8 1 5 45.20684196054007 0.1840173723032605 0
9 1 4 52.30754787761002 0.3122971245197952 0
10 1 3 59.19342916714193 0.1120255450734526 0
11 1 2 65.84313327451855 0.36370093354212574 0
12 1 7 72.99027176375463 0.05602461433213657 0
13 1 7 79.79027878826174 0.2531638874107323 0
14 1 7 86.97063932695445 0.2021207083359447 0
15 1 7 93.78567464071499 0.2631715108387866 0
16 1 7 100.69351728752608 0.19178840667679664 0
17 1 2 107.6552236610361 0.0987346066811087 0
18 1 3 114.42347765127641 0.268879240272134 0
19 1 4 121.39260023594927 0.15101219324722212 0
20 1 5 128.22637208494643 0.29539137825313205 0
21 1 6 135.15851164391913 0.20406063649133746 0
22 1 6 142.29488958472956 0.06583097195146884 0
23 1 5 149.2576035735513 0.10245559933181636 0
24 1 4 155.98926988249153 0.2953037231900374 0
25 1 3 162.9817876335585 0.3347109229793638 0
26 1 8 0.3328870589574515 2.0201698117484854 0
27 1 9 7.087131075193026 2.3952260742806653 0
28 1 10 14.0697062294094 2.26099125021146 0
29 1 11 20.98332009554843 2.0592891515517944 0
30 1 12 28.11160072498307 2.149292694117234 0
31 1 13 34.84726819232029 2.203331184855975 0
32 1 12 41.6120914996313 2.1786489197724985 0
33 1 11 48.84895005232429 2.372725049879273 0
34 1 10 55.77909065043943 2.0699681742904597 0
35 1 9 62.53999522248326 2.1458411447753805 0
36 1 8 69.54540110977085 2.149305843394834 0
37 1 9 76.32569161564453 2.204187315706344 0
38 1 9 83.43275891472253 2.0547294918615133 0
39 1 9 90.38766372555175 2.0660055052297746 0
40 1 9 97.18587771061928 2.2882162956362135 0
41 1 8 103.99565163128317 2.297980455504142 0
42 1 9 111.02818942585093 2.0525677476098485 0
43 1 10 118.018171829403 2.072864133895198 0
44 1 11 125.06457503417512 2.3422271547221314 0
45 1 12 131.9887466048534 2.1517298272616374 0
46 1 13 138.8572367130556 2.031795495839373 0
47 1 12 145.84391528446636 2.02851764267748 0
48 1 11 152.73868193499015 2.313818480406554 0
49 1 10 159.40444689610507 2.0705857410687365 0
50 1 9 166.62484402652748 2.1101952102625825 0
51 1 9 0.27382189809325846 6.160264444606843 0
52 1 8 7.1719511025588405 6.207898572042873 0
53 1 4 14.225680033281458 6.258617578909345 0
54 1 14 20.801463088590967 6.162524030979011 0
55 1 15 27.917588291479884 6.060062322992989 0
56 1 12 34.89559280125922 6.17596109666745 0
57 1 15 41.75816957335434 6.304231064434078 0
58 1 14 48.79038247664148 6.08716196623316 0
59 1 4 55.700240233149145 6.211625102657778 0
60 1 8 62.67092129472387 6.071303321241933 0
61 1 9 69.59951559564416 6.169011500550882 0
62 1 4 76.35424692755917 6.034718845424202 0
63 1 4 83.452569984073 6.309711086834824 0
64 1 4 90.39498729649378 6.3865194219148025 0
65 1 4 97.12384456590699 6.3301791883212974 0
66 1 9 104.11283662068153 6.0276345979438215 0
67 1 8 111.08939461865445 6.28412398881535 0
68 1 4 117.81888291449177 6.098596817042208 0
69 1 14 124.89347720415508 6.232839176925327 0
70 1 15 132.0299109136384 6.127166777323677 0
71 1 12 138.7680733201411 6.0593799702379245 0
72 1 15 145.84386433307893 6.268822058108153 0
73 1 14 152.48090776321655 6.013221569594753 0
74 1 4 159.38554206255264 6.208207031971147 0
75 1 8 166.44259435652074 6.1679313299246 0
76 1 3 -3.154680621323899 8.210459472082007 0
77 1 8 3.6366814252758064 8.086315965217418 0
78 1 9 10.490762323056037 8.057317602726604 0
79 1 10 17.567532917253235 8.268264910133828 0
80 1 11 24.480981110650635 8.383554689106964 0
81 1 15 31.362791579715516 8.36112282469793 0
82 1 15 38.1814028411098 8.252094710196793 0
83 1 11 45.19987637967759 8.323885468453113 0
84 1 10 52.24130626781126 8.313995050464941 0
85 1 9 58.94563108331577 8.22836155400973 0
86 1 8 66.0374960620627 8.042806648301429 0
87 1 4 73.10683052342215 8.118178405034673 0
88 1 10 79.92949199973384 8.254102029111014 0
89 1 10 86.94500033663931 8.079804331180458 0
90 1 10 93.85890347651383 8.089090384217144 0
91 1 4 100.78920131125139 8.292829935753804 0
92 1 8 107.75806105411613 8.01414506196234 0
93 1 9 114.35718884995381 8.212705301681256 0
94 1 10 121.31548382485424 8.06803838887374 0
95 1 11 128.52671997853744 8.374817054376782 0
96 1 15 135.3356451749911 8.237909177491028 0
97 1 15 142.37491351638718 8.386678277500152 0
98 1 11 149.3521582776999 8.28613753421238 0
99 1 10 156.00617429417866 8.383239027846777 0
100 1 9 163.2049212748623 8.29561293670467 0
101 1 16 -3.4318756450676107 12.331785911167273 0
102 1 9 3.750374192345272 12.155737809791397 0
103 1 8 10.528610600865802 12.268720842881612 0
104 1 4 17.673016232200602 12.067785604847652 0
105 1 14 24.446815114804384 12.302762360489817 0
106 1 11 31.465970791077435 12.185149950134802 0
107 1 11 38.49645661500994 12.216365017380078 0
108 1 14 45.11400405991264 12.079145828279156 0
109 1 4 52.26545283984756 12.311159866721304 0
110 1 8 58.98142137551412 12.367528002067475 0
111 1 9 65.94202878656063 12.030047143971949 0
112 1 10 73.07893398108737 12.247842362153039 0
113 1 13 79.86859024557782 12.152984537509205 0
114 1 13 86.96895198000823 12.075665381394732 0
115 1 13 93.91221779875538 12.364799818929013 0
116 1 10 100.49240970593036 12.090523130910315 0
117 1 9 107.62049879078222 12.298797371202044 0
118 1 8 114.4103323247456 12.289151592107864 0
119 1 4 121.64043589020318 12.317370861702942 0
120 1 14 128.4967267591502 12.304656479591406 0
121 1 11 135.39932523384468 12.186976442128294 0
122 1 11 142.23398641862659 12.299616512630584 0
123 1 14 149.18108134182575 12.274904198297758 0
124 1 4 156.10811674105406 12.320533410574692 0
125 1 8 163.14187557942446 12.234648950581258 0
126 1 4 0.15797791840073772 14.336752621389358 0
127 1 8 7.249694044306491 14.387273568891514 0
128 1 9 14.02164919763503 14.138738000661615 0
129 1 10 21.001831255968128 14.294677249388931 0
130 1 13 27.92650634632528 14.142410770475077 0
131 1 13 34.99251272828581 14.096928774186816 0
132 1 13 41.68143614672952 14.246999470846912 0
133 1 10 48.741568689601756 14.117134020221235 0
134 1 9 55.54240535536335 14.053015356412386 0
135 1 8 62.55293021820668 14.204954330209157 0
136 1 4 69.65913015985846 14.132935604380364 0
137 1 14 76.43245484108273 14.327859457940635 0
138 1 11 83.45926522673548 14.129301078094166 0
139 1 11 90.13329208207338 14.391982099678078 0
140 1 14 97.15849482410277 14.361581949247569 0
141 1 4 103.96554899714714 14.102219140811945 0
142 1 8 110.91854780434801 14.036076669796739 0
143 1 9 117.97362362601814 14.19580905507588 0
144 1 10 125.02112276498329 14.21618755160448 0
145 1 13 131.92754353753043 14.167332046224123 0
146 1 13 138.75980683135856 14.021792670759277 0
147 1 13 145.82825633005132 14.349983854857605 0
148 1 10 152.45344350290358 14.284394479365751 0
149 1 9 159.65681978103723 14.227056701661636 0
150 1 8 166.53968998282406 14.37934692543936 0
151 1 10 0.1659820947715691 18.018373094671297 0
152 1 9 7.048256463688887 18.305072640232634 0
153 1 8 14.063585778931076 18.3567077481301 0
154 1 4 20.93992307226227 18.111863397785303 0
155 1 10 27.977464695354335 18.059098143815707 0
156 1 10 34.95225703002233 18.339556589458226 0
157 1 10 41.69130243133204 18.273083945525233 0
158 1 4 48.53697936233263 18.399527630716005 0
159 1 8 55.76878396745677 18.009232250012445 0
160 1 9 62.74838000599997 18.165434130524595 0
161 1 10 69.30273776391581 18.08714384332504 0
162 1 11 76.35145378544632 18.3839025909518 0
163 1 15 83.28976542626248 18.190826270260313 0
164 1 15 90.34687598221394 18.125727919665742 0
165 1 11 97.21933983000307 18.075238590851036 0
166 1 10 104.08617574360069 18.39064180670105 0
167 1 9 110.87870538256715 18.361942572078576 0
168 1 8 117.81458045872961 18.263025613781533 0
169 1 4 125.08148411652697 18.271093456303603 0
170 1 10 131.99536114614781 18.056811800522077 0
171 1 10 138.87404287364984 18.393934587461914 0
172 1 10 145.5661590028759 18.306186711521416 0
173 1 4 152.73309602027254 18.05492277222713 0
174 1 8 159.70782558563073 18.28762430471772 0
175 1 9 166.54674769044487 18.327822845005915 0
176 1 4 -3.2096338652901952 20.197265623814896 0
177 1 4 3.7141373099151647 20.22264491202719 0
178 1 8 10.550889929203716 20.107823690289134 0
179 1 9 17.677905253387173 20.02185531386196 0
180 1 4 24.357290874959435 20.330152740760894 0
181 1 4 31.350001702849198 20.318517224030973 0
182 1 4 38.39692265859378 20.355607982440738 0
183 1 4 45.14876543063533 20.3230436920987 0
184 1 9 51.96222471712258 20.30507318421371 0
185 1 8 59.221850688989484 20.269965429193633 0
186 1 4 65.92667594084035 20.339730966409878 0
187 1 14 72.80556371700817 20.21505213728834 0
188 1 15 79.94618882380729 20.028857179505735 0
189 1 12 86.71782288617042 20.024618654411107 0
190 1 15 93.88316263691074 20.055736569385203 0
191 1 14 100.75319162790385 20.251006346128182 0
192 1 4 107.48409339923347 20.14934746914366 0
193 1 8 114.45237892274473 20.219148623230392 0
194 1 9 121.43832887827861 20.096189569419053 0
195 1 4 128.37668764479048 20.17725436051903 0
196 1 4 135.4245047809811 20.175457920047545 0
197 1 4 142.35169103568262 20.092399390569643 0
198 1 4 149.0667630964855 20.004972283030664 0
199 1 9 156.19169073583555 20.163355961319464 0
200 1 8 162.82199025586573 20.186464492259873 0
201 1 9 -3.343006297350597 24.110847959417313 0
202 1 10 3.7529726722877603 24.18260245830077 0
203 1 9 10.526941091314676 24.397241006962886 0
204 1 8 17.673603666745887 24.132188460526972 0
205 1 9 24.468204387545487 24.307386799741 0
206 1 9 31.35611403795687 24.261862317953955 0
207 1 9 38.496376697271764 24.26501838701697 0
208 1 9 45.151661320576096 24.03442100916116 0
209 1 8 52.04123999180723 24.343504424068726 0
210 1 9 59.08189364950266 24.211791487451606 0
211 1 10 65.93493016799616 24.37508689290315 0
212 1 11 72.75131439954984 24.392002421612442 0
213 1 12 79.89402256855482 24.112836635176706 0
214 1 13 86.97362499097463 24.38908037707263 0
215 1 12 93.692738371207 24.315591957427365 0
216 1 11 100.73221997434338 24.355426952221087 0
217 1 10 107.60789671969202 24.27303294718951 0
218 1 9 114.46110768160041 24.024712887248775 0
219 1 8 121.36879195203744 24.38393679591567 0
220 1 9 128.5555678202892 24.051639340315067 0
221 1 9 135.16010064875007 24.222934074860095 0
222 1 9 142.33903831461046 24.235765566510807 0
223 1 9 149.31720153279025 24.003275831513236 0
224 1 8 155.9705141506191 24.393747206348504 0
225 1 9 163.02454761933117 24.33580273683979 0
226 1 14 0.20219439417048726 26.386208007397617 0
227 1 4 6.986275662019528 26.035251434243737 0
228 1 8 13.96282021440141 26.078346696262276 0
229 1 15 20.9588897832681 26.172120040363374 0
230 1 15 27.986570553702844 26.107092306593177 0
231 1 15 35.00828008616874 26.07357532069706 0
232 1 15 41.591381433766934 26.008333695065538 0
233 1 15 48.80063881438324 26.175325350239703 0
234 1 8 55.478046695773905 26.11161704773036 0
235 1 4 62.60235482630948 26.31292822683415 0
236 1 14 69.61955219739022 26.284755097196552 0
237 1 15 76.21072058563817 26.20814983383822 0
238 1 13 83.25984814912071 26.242902939359688 0
239 1 13 90.32601156923164 26.14570217807993 0
240 1 15 97.03776289247914 26.334532763013534 0
241 1 14 104.25688327106211 26.16436916616836 0
242 1 4 111.16109346871559 26.28372214520906 0
243 1 8 118.07975224229519 26.202148145503386 0
244 1 15 125.03932112128491 26.196316564150063 0
245 1 15 131.71907194924344 26.24862612724012 0
246 1 15 138.56588504708407 26.00537437121669 0
247 1 15 145.71711111767888 26.018861341985062 0
248 1 15 152.53153673721923 26.0272142778139 0
249 1 8 159.50603155546423 26.245023549007595 0
250 1 4 166.30056882260357 26.209296683053637 0
251 1 14 0.35375993066045863 30.154989672189355 0
252 1 4 7.2962300317242015 30.17698866682719 0
253 1 8 13.992960177747808 30.08947006067893 0
254 1 15 21.07253468720859 30.278878711058525 0
255 1 15 27.97245140426649 30.022915010515135 0
256 1 15 35.00225862810968 30.38428446454461 0
257 1 15 41.6491701830905 30.048778304319285 0
258 1 15 48.59009437516073 30.219727071479277 0
259 1 8 55.49420311840882 30.33712368559474 0
260 1 4 62.53253427458878 30.13808823581366 0
261 1 14 69.31319126995342 30.230860333898836 0
262 1 15 76.28325130041907 30.275117866868786 0
263 1 13 83.37914362036635 30.21344673256412 0
264 1 13 90.36784998737791 30.112853978426855 0
265 1 15 97.38039064886007 30.11915829704802 0
266 1 14 104.17327320124195 30.121601632367152 0
267 1 4 111.06221025013568 30.018982297117084 0
268 1 8 118.09036231614222 30.14374519129972 0
269 1 15 124.97472790652819 30.226166749417143 0
270 1 15 131.6802574521548 30.037452889292364 0
271 1 15 138.8772903209953 30.068022556641736 0
272 1 15 145.86606727457394 30.34244377176245 0
273 1 15 152.55031485904357 30.317486904997804 0
274 1 8 159.5320310703139 30.33819788067038 0
275 1 4 166.52331843470859 30.326597533319607 0
276 1 9 -3.2924431118565005 32.02638900159252 0
277 1 10 3.666835604012263 32.030427938927474 0
278 1 9 10.514689252655122 32.219907756860046 0
279 1 8 17.49416263446816 32.31903683866324 0
280 1 9 24.386569048010443 32.17489663265485 0
281 1 9 31.506898402328677 32.27137533813945 0
282 1 9 38.49658412275467 32.0440892273186 0
283 1 9 45.15465370207294 32.39142183063181 0
284 1 8 52.161125003935595 32.315366165331504 0
285 1 9 59.020658183184516 32.30575034077526 0
286 1 10 65.82254028685475 32.17067912574711 0
287 1 11 72.76146015275378 32.110670212404486 0
288 1 12 80.02202116724447 32.041275795587474 0
289 1 13 86.98823723010308 32.00234022376448 0
290 1 12 93.77913071842741 32.39887793789056 0
291 1 11 100.72675145772884 32.139282271673274 0
292 1 10 107.38964948603166 32.035761183277046 0
293 1 9 114.38742021443373 32.31678076512053 0
294 1 8 121.56368500290856 32.10628872128346 0
295 1 9 128.26842231924556 32.036413507905685 0
296 1 9 135.41683868833837 32.09393458540024 0
297 1 9 142.41255944374055 32.005653707330424 0
298 1 9 149.05244731497294 32.35217986447688 0
299 1 8 155.98090737250374 32.135004397078404 0
300 1 9 162.8169284378926 32.30532799875432 0
301 1 4 -3.1668719349727787 36.140089871108756 0
302 1 4 3.680077580833241 36.16296650106844 0
303 1 8 10.69207098171298 36.067575478774586 0
304 1 9 17.33011400641257 36.2226085186064 0
305 1 4 24.263195342457955 36.24076965675896 0
306 1 4 31.264748910182547 36.33118940799392 0
307 1 4 38.450476506836615 36.138546836153694 0
308 1 4 45.24794385997658 36.027083982938876 0
309 1 9 52.1505650908497 36.24061439433381 0
310 1 8 59.11088801173411 36.14525747189438 0
311 1 4 65.91872176293634 36.35904132943763 0
312 1 14 72.89905714979082 36.23403262461076 0
313 1 15 79.84331067691876 36.36057135727635 0
314 1 12 86.79606161805701 36.019682131155015 0
315 1 15 93.90454642850771 36.353031353041054 0
316 1 14 100.79481698296452 36.08941109367918 0
317 1 4 107.44600496021687 36.09460995621702 0
318 1 8 114.64839940889884 36.15909008423975 0
319 1 9 121.49724182355442 36.038947886832716 0
320 1 4 128.554616509081 36.245371752230454 0
321 1 4 135.18679004354112 36.24999814144417 0
322 1 4 142.0364954079172 36.21711790416069 0
323 1 4 149.02122928113306 36.35793449365493 0
324 1 9 156.15702072240435 36.18243852624951 0
325 1 8 162.83117367904393 36.22469883948284 0
326 1 10 0.16003410332142629 38.210836377872035 0
327 1 9 7.0216965069143535 38.33018634830005 0
328 1 8 13.96676740153478 38.003488276557505 0
329 1 4 21.080510567008695 38.25252752444095 0
330 1 10 28.068080181788297 38.3826761295336 0
331 1 10 34.97891909503292 38.07096944168306 0
332 1 10 41.66121617885748 38.00203573360685 0
333 1 4 48.686967907061884 38.143885963744424 0
334 1 8 55.579384573639835 38.206992382052086 0
335 1 9 62.750165078484216 38.282342424153974 0
336 1 10 69.37608614994876 38.235766189462844 0
337 1 11 76.49032004430732 38.18107081574548 0
338 1 15 83.50407414362853 38.085113878413054 0
339 1 15 90.40635408568767 38.07315335780765 0
340 1 11 97.1053432578041 38.025613507644046 0
341 1 10 104.02455912819985 38.38238611144213 0
342 1 9 111.22116403841639 38.17629815237321 0
343 1 8 117.87986716127529 38.00317438814137 0
344 1 4 125.10140330569293 38.143667980299156 0
345 1 10 131.82246010535326 38.09871714189664 0
346 1 10 138.96390067121996 38.39079831916252 0
347 1 10 145.7632913281523 38.024947669989025 0
348 1 4 152.74553507190004 38.33360182344111 0
349 1 8 159.42896419709385 38.038742004077065 0
350 1 9 166.60450925445315 38.28885630244006 0
351 1 4 0.3956047362233858 42.06014402525584 0
352 1 8 7.195206286847535 42.0855126697324 0
353 1 9 14.162664736813918 42.01266611774128 0
354 1 10 20.870493307581132 42.08939170466884 0
355 1 13 27.851067521273478 42.23386898055366 0
356 1 13 34.998782733889556 42.25949641275595 0
357 1 13 41.86436116508209 42.315620822030695 0
358 1 10 48.611681056769314 42.30765172789138 0
359 1 9 55.77259505323913 42.011509193465194 0
360 1 8 62.64896478295796 42.22791154072253 0
361 1 4 69.29635565315422 42.17643820934469 0
362 1 14 76.31755551067958 42.35017031532407 0
363 1 11 83.41272094779391 42.389626372299695 0
364 1 11 90.09918265393588 42.113499824718446 0
365 1 14 97.14273335909922 42.05073726394722 0
366 1 4 104.16812737327413 42.09972705718504 0
367 1 8 111.01857102534056 42.27941206318793 0
368 1 9 117.85852347377472 42.39351102885832 0
369 1 10 125.04574081615026 42.15557581051562 0
370 1 13 131.68344554435055 42.322699115055 0
371 1 13 138.61798832524676 42.358418934630016 0
372 1 13 145.77092475837173 42.283135807905005 0
373 1 10 152.66722297128592 42.29896224063461 0
374 1 9 159.59021062310907 42.13734509150954 0
375 1 8 166.403506700414 42.231956289908105 0
376 1 16 -3.3233319760935833 44.14320691478514 0
377 1 9 3.844580693117866 44.36761564430818 0
378 1 8 10.702050380251404 44.04963342215738 0
379 1 4 17.640047938975886 44.3286865436644 0
380 1 14 24.525087468624097 44.151063594963375 0
381 1 11 31.26591702411364 44.11741135181369 0
382 1 11 38.49219122193577 44.38848977025648 0
383 1 14 45.39055501955573 44.35873334083161 0
384 1 4 52.18830647285163 44.18061910686771 0
385 1 8 58.96931945795699 44.13728025943516 0
386 1 9 66.13949550898208 44.20559685028011 0
387 1 10 72.80216940709684 44.11544270748349 0
388 1 13 79.97508589801394 44.272781175883935 0
389 1 13 86.74456370617433 44.39966154687688 0
390 1 13 93.826372187397 44.2803509712591 0
391 1 10 100.67325834688752 44.39189614525807 0
392 1 9 107.69509778606081 44.2548914273716 0
393 1 8 114.66305051748982 44.00588709808829 0
394 1 4 121.46745600436824 44.34361263558799 0
395 1 14 128.3180256552641 44.385585559892604 0
396 1 11 135.2270174670884 44.31096472444971 0
397 1 11 142.2023872241578 44.24273840946515 0
398 1 14 149.02021657054627 44.056767944823164 0
399 1 4 155.97267873046624 44.165615059399045 0
400 1 8 163.10397226485563 44.20689484504443 0
401 1 3 -3.2360362934265443 48.330390041158964 0
402 1 8 3.6426983744688335 48.02773608654396 0
403 1 9 10.676828153175293 48.28877435089604 0
404 1 10 17.675505183861596 48.03460660140101 0
405 1 11 24.36403738192154 48.251196039291784 0
406 1 15 31.555340198872603 48.03590798671942 0
407 1 15 38.498398962690224 48.076161122733424 0
408 1 11 45.062044558512156 48.275859720061575 0
409 1 10 52.28978792154862 48.04175738980384 0
410 1 9 58.97426531310105 48.258779800868645 0
411 1 8 66.01414942210438 48.07570617385268 0
412 1 4 72.97589965205987 48.39202117795344 0
413 1 10 79.7420075162897 48.019977776837834 0
414 1 10 86.68399757842832 48.24980377392289 0
415 1 10 93.89667641814863 48.13066018000836 0
416 1 4 100.83758961345127 48.28687265500319 0
417 1 8 107.74999981124935 48.11269040268363 0
418 1 9 114.40661608179535 48.363832180814015 0
419 1 10 121.59536352633262 48.206432822943505 0
420 1 11 128.35326557859494 48.124077170639595 0
421 1 15 135.36314449639653 48.2089543142157 0
422 1 15 142.2256667338691 48.33905816882443 0
423 1 11 149.05806814386224 48.17177984797644 0
424 1 10 155.89081329784747 48.37102550917281 0
425 1 9 163.18204075365003 48.11175370213374 0
426 1 9 0.2314635280591671 50.017595745187975 0
427 1 8 7.188350205787519 50.38718301797524 0
428 1 4 14.236934809296441 50.35332685939512 0
429 1 14 21.13752807746605 50.37208068086485 0
430 1 15 27.73593064906876 50.32983556784857 0
431 1 12 34.85441434319898 50.30453678525573 0
432 1 15 41.82648481088459 50.09809870881095 0
433 1 14 48.52683408715997 50.00449605763232 0
434 1 4 55.52017037437067 50.20570115402026 0
435 1 8 62.63584128652175 50.13872175636305 0
436 1 9 69.46728701749618 50.39656230119454 0
437 1 4 76.40156513327045 50.248948419749766 0
438 1 4 83.25930574991904 50.28768446318761 0
439 1 4 90.35941968648078 50.337140735378796 0
440 1 4 97.25527719712936 50.07932103372468 0
441 1 9 104.180469621359 50.029737472474814 0
442 1 8 110.85536450260147 50.075187280266235 0
443 1 4 117.88316073522535 50.31210784105967 0
444 1 14 124.93972065986777 50.073748470296664 0
445 1 15 131.72577297071726 50.37945539159581 0
446 1 12 138.8018792728401 50.134722131203915 0
447 1 15 145.74237329061745 50.13373550572978 0
448 1 14 152.50044776092986 50.151520522306896 0
449 1 4 159.41010702633758 50.19362954441848 0
450 1 8 166.3718107142588 50.19589726769999 0
451 1 8 0.20991775565752024 54.09863228013978 0
452 1 9 7.276244023615441 54.098671239687 0
453 1 10 14.09094297162103 54.35260282135977 0
454 1 11 20.86166044680244 54.23067972598286 0
455 1 12 27.75946906711604 54.21150636823889 0
456 1 13 34.84723551675253 54.16567813662488 0
457 1 12 41.77539855330403 54.02365719312002 0
458 1 11 48.73566227459834 54.08361390259074 0
459 1 10 55.752706510672205 54.21506071168807 0
460 1 9 62.63886407972084 54.38926357372969 0
461 1 8 69.51079031076817 54.00469895848625 0
462 1 9 76.5973592690598 54.32964597052399 0
463 1 9 83.1472368359458 54.269372082604384 0
464 1 9 90.37779106398271 54.24881018334193 0
465 1 9 97.09884354600881 54.13406475651322 0
466 1 8 104.14998709415308 54.1928783965757 0
467 1 9 111.11869200291102 54.15916605541922 0
468 1 10 118.0554576982465 54.35731403285281 0
469 1 11 124.97758552748468 54.038650172993194 0
470 1 12 131.86931623333888 54.36797131969875 0
471 1 13 138.71490009186087 54.14213424639874 0
472 1 12 145.6354184268764 54.15618683693252 0
473 1 11 152.65148864978605 54.20337131545533 0
474 1 10 159.7080639451092 54.2401434362568 0
475 1 9 166.57611944438216 54.25417984178164 0
476 1 2 -3.269658356151839 56.346563375466005 0
477 1 8 3.6792641298801962 56.255189395913554 0
478 1 4 10.545507557132138 56.112886338577034 0
479 1 14 17.526054288572585 56.16536104362318 0
480 1 15 24.520993993639003 56.17412100909762 0
481 1 13 31.231587031511605 56.09220798739535 0
482 1 13 38.29570017264801 56.2339539227982 0
483 1 15 45.36088935387387 56.33680917748388 0
484 1 14 52.043266556909636 56.269319136712596 0
485 1 4 59.05190543650495 56.034078092881465 0
486 1 8 65.96538164979452 56.38750255054116 0
487 1 15 72.7663024671388 56.292870230292465 0
488 1 15 79.84755328410556 56.12397033151233 0
489 1 15 86.9172248651217 56.31680631326427 0
490 1 15 93.56679400392007 56.15151864545732 0
491 1 15 100.66461709154304 56.15125396617689 0
492 1 8 107.61610390236471 56.1097169416066 0
493 1 4 114.60547192029857 56.17337120287308 0
494 1 14 121.41376006674913 56.1653848649857 0
495 1 15 128.4264210917803 56.11372964511237 0
496 1 13 135.23990969021108 56.316745989199624 0
497 1 13 142.4108530809096 56.39603719623566 0
498 1 15 149.14243575345054 56.2652921214688 0
499 1 14 156.02978718788637 56.172575268425994 0
500 1 4 163.16874988150812 56.169191443285044 0
501 1 2 -3.389244728035731 60.33892847622505 0
502 1 8 3.7030356626583676 60.26191285495251 0
503 1 4 10.421454784648796 60.31183439300324 0
504 1 14 17.69479959736398 60.02538723476015 0
505 1 15 24.612523371512044 60.110561520574706 0
506 1 13 31.380634860282047 60.003087164574495 0
507 1 13 38.22226911470771 60.17988700740662 0
508 1 15 45.2229838002841 60.39784475932437 0
509 1 14 52.164317316086546 60.042559931861796 0
510 1 4 59.26864946929478 60.345222226931675 0
511 1 8 65.9679233793417 60.21355757601684 0
512 1 15 73.14211019194013 60.16338141718531 0
513 1 15 79.84402441018568 60.36192667264528 0
514 1 15 86.81176438703746 60.199382368484294 0
515 1 15 93.90506259178626 60.04920180258203 0
516 1 15 100.65304981741544 60.21523862538753 0
517 1 8 107.52029869619628 60.18377418880684 0
518 1 4 114.41934534934798 60.10711410381531 0
519 1 14 121.4489523228441 60.076349647879205 0
520 1 15 128.28384511007508 60.227985898387495 0
521 1 13 135.13836617089976 60.36116337671527 0
522 1 13 142.25814482190648 60.100826842751346 0
523 1 15 149.21660957726175 60.049584208578146 0
524 1 14 156.0551684760247 60.332983940159444 0
525 1 4 163.09779556428407 60.008373799538184 0
526 1 8 0.2498737512755513 62.07945682763328 0
527 1 9 7.301253295193374 62.252074605409184 0
528 1 10 14.086120908251674 62.307867405101895 0
529 1 11 21.146044512862467 62.220260226661026 0
530 1 12 27.856841761439807 62.29335813295028 0
531 1 13 34.70669898614508 62.337474280194584 0
532 1 12 41.824145488912976 62.26928402862111 0
533 1 11 48.7453974409575 62.370136241899644 0
534 1 10 55.66882095849266 62.09504329295258 0
535 1 9 62.538536563433745 62.212532573007216 0
536 1 8 69.42496672826316 62.03104974180673 0
537 1 9 76.51669940686563 62.38657524791233 0
538 1 9 83.44246930693478 62.34357485955243 0
539 1 9 90.27935467822132 62.34516253186432 0
540 1 9 97.35580625307638 62.187982194009734 0
541 1 8 104.27458766774699 62.19026948873704 0
542 1 9 111.10262202847301 62.28445257836928 0
543 1 10 118.06962999605611 62.02140362017289 0
544 1 11 124.85242548600797 62.28287799139041 0
545 1 12 131.71615381109794 62.3118190162407 0
546 1 13 138.8928438610377 62.11763156556424 0
547 1 12 145.8569134661138 62.0290600048763 0
548 1 11 152.7299346292607 62.22587096575542 0
549 1 10 159.60892267928492 62.300485356605485 0
550 1 9 166.45493978532022 62.06732484935232 0
551 1 9 0.08961483737521601 66.12775608175863 0
552 1 8 7.104649920876287 66.37251392864026 0
553 1 4 14.068395451403584 66.00240620944174 0
554 1 14 20.959102264349436 66.3576478505665 0
555 1 15 27.74887064390938 66.27971161315072 0
556 1 12 34.824856430925 66.07932910249048 0
557 1 15 41.801345983352654 66.2100701977221 0
558 1 14 48.69017710476324 66.01604986129635 0
559 1 4 55.763710243059705 66.3106457116641 0
560 1 8 62.66538592091132 66.15451322932029 0
561 1 9 69.33053287291513 66.0287361246935 0
562 1 4 76.3701557513009 66.05062718919457 0
563 1 4 83.37524424646477 66.00093216758064 0
564 1 4 90.28737508287283 66.27047605631317 0
565 1 4 97.3192496657656 66.34716251109167 0