
14309 atoms
14896 bonds
16659 angles
42 atom types
13 bond types
35 angle types

-5.680607966083864 171.52447279080386 xlo xhi
-2.0 148.0 ylo yhi
-4 4 zlo zhi


Masses

1 0.00027165032679738566
2 0.0004618055555555556
3 0.0006791258169934641
4 0.0005568831699346406
5 0.0004482230392156863
6 0.0004074754901960784
7 0.0002173202614379085
8 0.0004210580065359477
9 0.00047538807189542487
10 0.0005433006535947713
11 0.0007334558823529413
12 0.0008964460784313727
13 0.0009507761437908497
14 0.0007062908496732027
15 0.0008964460784313726
16 0.001005106209150327
17 0.0008149509803921569
18 0.0005704656862745098
19 0.00035314542483660136
20 0.0006519607843137256
21 0.0008149509803921568
22 0.0005704656862745099
23 0.0005161356209150327
24 0.000624795751633987
25 0.0006247957516339871
26 0.0002444852941176471
27 0.0003259803921568628
28 0.0005025531045751635
29 0.00019015522875816992
30 0.0005433006535947713
31 0.00038031045751633983
32 0.0007062908496732027
33 0.0006519607843137256
34 0.0005976307189542484
35 0.0005161356209150327
36 0.000434640522875817
37 0.0004618055555555556
38 0.0004889705882352942
39 0.0003259803921568628
40 0.0001629901960784314
41 0.00027165032679738566
42 0.0004074754901960784

Pair Coeffs

1 0.40509979849834776 0.44544935907016964 0.5
2 0.40509979849834776 0.44544935907016964 0.5
3 0.40509979849834776 0.44544935907016964 0.5
4 0.40509979849834776 0.44544935907016964 0.5
5 0.40509979849834776 0.44544935907016964 0.5
6 0.40509979849834776 0.44544935907016964 0.5
7 0.40509979849834776 0.44544935907016964 0.5
8 0.40509979849834776 0.44544935907016964 0.5
9 0.40509979849834776 0.44544935907016964 0.5
10 0.40509979849834776 0.44544935907016964 0.5
11 0.40509979849834776 0.44544935907016964 0.5
12 0.40509979849834776 0.44544935907016964 0.5
13 0.40509979849834776 0.44544935907016964 0.5
14 0.40509979849834776 0.44544935907016964 0.5
15 0.40509979849834776 0.44544935907016964 0.5
16 0.40509979849834776 0.44544935907016964 0.5
17 0.40509979849834776 0.44544935907016964 0.5
18 0.40509979849834776 0.44544935907016964 0.5
19 0.40509979849834776 0.44544935907016964 0.5
20 0.40509979849834776 0.44544935907016964 0.5
21 0.40509979849834776 0.44544935907016964 0.5
22 0.40509979849834776 0.44544935907016964 0.5
23 0.40509979849834776 0.44544935907016964 0.5
24 0.40509979849834776 0.44544935907016964 0.5
25 0.40509979849834776 0.44544935907016964 0.5
26 0.40509979849834776 0.44544935907016964 0.5
27 0.40509979849834776 0.44544935907016964 0.5
28 0.40509979849834776 0.44544935907016964 0.5
29 0.40509979849834776 0.44544935907016964 0.5
30 0.40509979849834776 0.44544935907016964 0.5
31 0.40509979849834776 0.44544935907016964 0.5
32 0.40509979849834776 0.44544935907016964 0.5
33 0.40509979849834776 0.44544935907016964 0.5
34 0.40509979849834776 0.44544935907016964 0.5
35 0.40509979849834776 0.44544935907016964 0.5
36 0.40509979849834776 0.44544935907016964 0.5
37 0.40509979849834776 0.44544935907016964 0.5
38 0.40509979849834776 0.44544935907016964 0.5
39 0.40509979849834776 0.44544935907016964 0.5
40 0.40509979849834776 0.44544935907016964 0.5
41 0.40509979849834776 0.44544935907016964 0.5
42 0.40509979849834776 0.44544935907016964 0.5

Bond Coeffs

1 108.66013071895426 0.5
2 76.06209150326796 0.5
3 141.25816993464053 0.5
4 130.3921568627451 0.5
5 119.52614379084967 0.5
6 103.22712418300655 0.5
7 86.9281045751634 0.5
8 92.36111111111111 0.5
9 97.79411764705883 0.5
10 65.19607843137256 0.5
11 32.59803921568628 0.5
12 54.33006535947713 0.5
13 81.49509803921569 0.5

Angle Coeffs

1 10.691273100799362 180
2 3.66710667357418 180
3 23.488727002456198 180
4 18.474519918181294 180
5 14.230084497163945 180
6 9.166430274797854 180
7 5.473931827609273 180
8 6.565778093028407 180
9 7.793938090482734 180
10 2.3093149897726617 180
11 0.2886643737215827 180
12 1.3364091375999203 180
13 4.510380839399729 180
14 5.461067272634669 120
15 20.682048540251873 120
16 11.150299830473244 120
17 5.9703467796746255 120
18 3.5629431270778213 120
19 0.47477693046312947 120
20 4.705888752062151 120
21 6.344271949924895 120
22 10.691273100799362 120
23 14.6942302173639 120
24 16.076878725792287 120
25 18.474519918181294 120
26 6.854531886001279 120
27 9.166430274797854 120
28 7.127336963897942 120
29 6.565778093028407 120
30 0.5131811088383691 120
31 2.3093149897726617 120
32 1.9589245051144124 120
33 1.3364091375999203 120
34 8.135402268137113 120
35 4.510380839399729 120

Atoms

1 1 1 -3.4155277865619054 0.2859367540680578 0
2 1 2 3.814979916334363 0.1625557071764995 0
3 1 3 10.614240259698526 0.002332262514400263 0
4 1 4 17.63426732549521 0.1370740668464631 0
5 1 5 24.567800984729693 0.20886451431853234 0
6 1 6 31.284674786193055 0.19057671062629936 0
7 1 7 38.144242544970666 0.16215104669704444 0
8 1 8 45.26853270675952 0.08018790880865852 0
9 1 9 52.14439174807005 0.1478742160534984 0
10 1 9 58.973000769698345 0.1459600488823889 0
11 1 8 65.85981858089276 0.3029827533861989 0
12 1 7 72.99352959902319 0.36480116410838065 0
13 1 6 79.92203315234526 0.33213917832679085 0
14 1 5 86.82492718031222 0.38174287816549834 0
15 1 4 93.92200848643193 0.04274318071590653 0
16 1 3 100.74545157575498 0.3501455277223027 0
17 1 2 107.65125784555194 0.12362204295202456 0
18 1 10 114.64267575721155 0.17166240084784157 0
19 1 10 121.56462418688436 0.3058425418118498 0
20 1 10 128.2420204152508 0.21561561569663423 0
21 1 10 135.42928229316198 0.14154169417379175 0
22 1 10 142.40338925644804 0.002597981770180935 0
23 1 10 148.97590097478826 0.3905278289864134 0
24 1 10 156.1871221372805 0.07460813661567688 0
25 1 10 162.9926081069425 0.36671780907568347 0
26 1 11 0.13116644657992724 2.2573523487914713 0
27 1 12 7.072643511504338 2.2747165548145873 0
28 1 13 14.242216734613486 2.3726375819378704 0
29 1 11 20.87290316333359 2.1968998562877395 0
30 1 14 27.755274839919345 2.2241204647302117 0
31 1 6 34.732910227414955 2.1701321153092974 0
32 1 2 41.78667333433357 2.3826742502567817 0
33 1 11 48.885817948613216 2.3833816877271525 0
34 1 3 55.56328022769544 2.3940301833710538 0
35 1 11 62.62621444480765 2.315889135761812 0
36 1 2 69.40507500823708 2.0195691600873635 0
37 1 6 76.27849601934466 2.1118747136275005 0
38 1 14 83.52493712056716 2.304195815331928 0
39 1 11 90.31244867820033 2.348947007583192 0
40 1 13 97.1276479792164 2.3590824412438653 0
41 1 12 104.01163991837242 2.062255151618657 0
42 1 11 110.92439472704115 2.3518716446416637 0
43 1 15 118.08925282868641 2.0582838662670313 0
44 1 15 125.1052574788745 2.1874857949808315 0
45 1 15 131.74972998510094 2.2898203123980956 0
46 1 15 138.894992107851 2.36043302285927 0
47 1 15 145.6596873489729 2.1666472571286906 0
48 1 15 152.4857525829107 2.053212696955246 0
49 1 15 159.5013017381668 2.1655262951886125 0
50 1 11 166.4970664863557 2.2245383221094523 0
51 1 12 0.05145110857103883 6.227261701313669 0
52 1 11 7.0324762280332695 6.3099180640940755 0
53 1 16 13.988505110601618 6.33766909486522 0
54 1 17 20.91966182488471 6.07690674798179 0
55 1 3 27.879043284052496 6.080784684596138 0
56 1 18 34.936400516363236 6.398087312410869 0
57 1 19 41.78106302698046 6.227039737509506 0
58 1 20 48.75064195314879 6.332601809806294 0
59 1 11 55.492562084487446 6.36363336529973 0
60 1 20 62.627259984179254 6.170227841666817 0
61 1 19 69.60505058991652 6.1113271548898505 0
62 1 18 76.56145189858965 6.095849284203106 0
63 1 3 83.22384369184792 6.089594733336448 0
64 1 17 90.1761628267513 6.166891669672449 0
65 1 16 97.11275073720356 6.173923186508317 0
66 1 11 104.29646269205202 6.361774656740218 0
67 1 12 110.87159003869078 6.241971435041507 0
68 1 16 118.16746695087448 6.089010916880303 0
69 1 16 124.84334602172592 6.204705521049526 0
70 1 16 132.00533233644583 6.295031987255879 0
71 1 16 138.80539837368832 6.134801870174828 0
72 1 16 145.7725264895188 6.392791676853252 0
73 1 16 152.54450665077556 6.340312777422257 0
74 1 16 159.45788733613043 6.377349506434624 0
75 1 12 166.56046455539817 6.155577872279268 0
76 1 3 -3.4417986727675522 8.376120527080822 0
77 1 11 3.5124824334094527 8.212359014043987 0
78 1 12 10.496435664486238 8.00821163461656 0
79 1 13 17.481833220477164 8.341955651181264 0
80 1 11 24.53827170035945 8.394468717131437 0
81 1 14 31.245553166043013 8.223860215500832 0
82 1 6 38.12884508744278 8.01518639828766 0
83 1 2 45.3335286006043 8.060920522751847 0
84 1 20 52.01040001621196 8.042537188154713 0
85 1 20 59.04611597859877 8.169466148111976 0
86 1 2 65.94351548746188 8.266887527330622 0
87 1 6 73.0307564807054 8.388257340372435 0
88 1 14 79.89444334157889 8.03887545990773 0
89 1 11 86.97691944204344 8.321748621957527 0
90 1 13 93.89540894310491 8.109952745900063 0
91 1 12 100.60443780032803 8.036909562016506 0
92 1 11 107.7123169007216 8.151625767284948 0
93 1 16 114.33389128507372 8.016307118122507 0
94 1 13 121.52343162014648 8.270975488154672 0
95 1 13 128.17650743544095 8.15332631173455 0
96 1 13 135.40485289152758 8.257397527592465 0
97 1 13 142.31712684611347 8.189868448096963 0
98 1 13 149.18081165934325 8.12399064122079 0
99 1 13 156.13629503580935 8.220348418189626 0
100 1 16 163.09385121726328 8.242444415149494 0
101 1 20 -3.1865424496393526 12.052461665563163 0
102 1 12 3.6678634947321185 12.088832256572394 0
103 1 11 10.684746900367204 12.018618589376942 0
104 1 16 17.529888459950243 12.301710195555103 0
105 1 17 24.333852777085774 12.298427629414023 0
106 1 3 31.323418659603913 12.28921568876942 0
107 1 18 38.492740027783036 12.025499569682285 0
108 1 19 45.20124695079103 12.350219395729399 0
109 1 2 52.30899825478193 12.367740528365209 0
110 1 2 58.939246152920916 12.12034861225926 0
111 1 19 65.91539263373562 12.33129685853642 0
112 1 18 72.9944777365364 12.220893673065616 0
113 1 3 80.00578976889157 12.262054094565848 0
114 1 17 86.79433835429552 12.261276144995593 0
115 1 16 93.73910342599763 12.025478617560024 0
116 1 11 100.67164390599818 12.369957326088368 0
117 1 12 107.57853419932486 12.292928731046121 0
118 1 13 114.45178689619561 12.315131597817889 0
119 1 21 121.50370622189224 12.115884397201878 0
120 1 21 128.55318694636762 12.05592670051884 0
121 1 21 135.42256395792415 12.242101739492472 0
122 1 21 142.03604632013761 12.272263327460308 0
123 1 21 148.98196757173235 12.057426371069688 0
124 1 21 155.9678508366361 12.245035371003274 0
125 1 13 163.16723234163115 12.343953739134063 0
126 1 16 0.09967693228372868 14.06054155971753 0
127 1 11 6.930316840815316 14.368782636001185 0
128 1 12 14.02970155465354 14.215077482099431 0
129 1 13 20.94341721183954 14.209474459498662 0
130 1 11 27.896226826636067 14.026671021841835 0
131 1 14 34.999984166701644 14.126088147091412 0
132 1 6 41.87288233307053 14.140790250301041 0
133 1 19 48.68094600440696 14.24352328199596 0
134 1 19 55.603592526811255 14.167942350890653 0
135 1 19 62.74084964611201 14.088062560238678 0
136 1 6 69.47705970561636 14.14494352107409 0
137 1 14 76.49230879015721 14.043105832537284 0
138 1 11 83.4366620719924 14.173456759836073 0
139 1 13 90.42148272988467 14.189586668339095 0
140 1 12 97.22998258076306 14.256443251972055 0
141 1 11 104.20643396772626 14.356714876218417 0
142 1 16 111.21094602675136 14.231117412246395 0
143 1 17 118.16004726231564 14.010758152328624 0
144 1 11 124.73807831578954 14.258187940916308 0
145 1 11 131.82848247263647 14.389621199298062 0
146 1 11 138.68557492310822 14.336628580167421 0
147 1 11 145.69243946278098 14.33312937823942 0
148 1 11 152.59916925031112 14.058507961196872 0
149 1 17 159.60074314707396 14.112943434373825 0
150 1 16 166.3602516826964 14.100121164576604 0
151 1 13 0.28186841333966134 18.300669102967106 0
152 1 12 6.953003985991048 18.220786656944057 0
153 1 11 13.923580246452419 18.399938597467905 0
154 1 16 21.10300107485684 18.039747448229782 0
155 1 17 27.837754523338752 18.155709185896743 0
156 1 3 34.648482399063155 18.111615610793823 0
157 1 18 41.81322693519894 18.17823000518381 0
158 1 6 48.87129465558247 18.070851361723335 0
159 1 6 55.57193256698588 18.2746144881653 0
160 1 6 62.50008760530596 18.39827254272629 0
161 1 18 69.31602391702953 18.083903279149386 0
162 1 3 76.46730669377989 18.10498855557915 0
163 1 17 83.35019707438607 18.376350898457567 0
164 1 16 90.40338711957153 18.10820420072813 0
165 1 11 97.1702848020448 18.02622965938288 0
166 1 12 104.18993327993736 18.045384785727563 0
167 1 13 110.86225377534751 18.162477885810755 0
168 1 11 118.1721343536125 18.384436933040313 0
169 1 3 124.76921612689522 18.00864879065884 0
170 1 3 131.86023853356292 18.29063296507806 0
171 1 3 138.76752930560983 18.24761406821634 0
172 1 3 145.64664202816448 18.089107911442238 0
173 1 3 152.68120827739472 18.23875691495867 0
174 1 11 159.44470500964218 18.117812769236192 0
175 1 13 166.33376327387285 18.01813370136106 0
176 1 4 -3.406517786058954 20.037917125660613 0
177 1 16 3.812541746990622 20.1962588661902 0
178 1 11 10.642403338222778 20.004382477191985 0
179 1 12 17.32340451659295 20.361517391503995 0
180 1 13 24.423132573461157 20.39630233034122 0
181 1 11 31.379123263038874 20.02112802540168 0
182 1 14 38.25039015864815 20.39664300223158 0
183 1 22 45.14234927212947 20.111896225198812 0
184 1 22 52.00947158288156 20.180810528361175 0
185 1 22 58.960250878593534 20.067020043810754 0
186 1 22 65.94259990277786 20.066973446106825 0
187 1 14 73.04120547387123 20.0615145391086 0
188 1 11 79.77420003117125 20.316903371894192 0
189 1 13 86.64292934881323 20.29999675175458 0
190 1 12 93.75225881138799 20.242872193030017 0
191 1 11 100.53527884638473 20.390855669393215 0
192 1 16 107.6233583462996 20.054050202405463 0
193 1 17 114.62018275762422 20.053097152261078 0
194 1 3 121.57167903229899 20.228156582559073 0
195 1 14 128.43542510245632 20.02271813692396 0
196 1 14 135.15245458139267 20.01220218248364 0
197 1 14 142.39646243434652 20.33980921965959 0
198 1 14 149.0211823704606 20.39945045364934 0
199 1 3 155.97552034359043 20.23879201180351 0
200 1 17 163.0306916343613 20.130296771037298 0
201 1 23 -3.296390905101687 24.157128247463124 0
202 1 13 3.7198335705526304 24.06486374175889 0
203 1 12 10.600697879876442 24.095157127911598 0
204 1 11 17.650212187710512 24.271152614796396 0
205 1 16 24.5219489467337 24.3339804042058 0
206 1 17 31.2305741731976 24.350512829377198 0
207 1 3 38.359001257009766 24.236621352779313 0
208 1 14 45.30854852922319 24.166682030349257 0
209 1 14 52.18154418929307 24.143979900056515 0
210 1 14 59.01114201912553 24.374957931017757 0
211 1 14 65.88864044643209 24.3957097140864 0
212 1 3 72.86832720202923 24.19752059338492 0
213 1 17 80.01029462428824 24.094898525672264 0
214 1 16 86.84451290674406 24.206628409485184 0
215 1 11 93.8810474192208 24.265150582694822 0
216 1 12 100.48681201001415 24.098009087750338 0
217 1 13 107.57628630923747 24.1388564103814 0
218 1 11 114.65583988266968 24.21061057413889 0
219 1 14 121.62964789212049 24.039695088575524 0
220 1 22 128.38503914060658 24.339455194006955 0
221 1 22 135.21511962501043 24.27891808481388 0
222 1 22 142.1224188936719 24.282375373250687 0
223 1 22 148.99288433007288 24.3134792252783 0
224 1 14 155.92085502791872 24.023023030917155 0
225 1 11 163.01276213389266 24.094603164598357 0
226 1 17 0.04212991469330851 26.352872530141326 0
227 1 16 6.951029136481597 26.121884615385447 0
228 1 11 14.19343486965724 26.358587034622236 0
229 1 12 20.912636424793 26.013606744634675 0
230 1 13 28.10526330869307 26.274007178657556 0
231 1 11 34.80643098183471 26.28052216310474 0
232 1 3 41.619421074977204 26.056297854451714 0
233 1 3 48.82709674946549 26.31773644342057 0
234 1 3 55.70276595419723 26.238395768998696 0
235 1 3 62.41889234783655 26.239115140328966 0
236 1 3 69.31883501428288 26.132223123228254 0
237 1 11 76.31249480231996 26.045855265553556 0
238 1 13 83.31820885092544 26.32049209188694 0
239 1 12 90.3476844687278 26.345840948120973 0
240 1 11 97.01063107821844 26.244260751824854 0
241 1 16 104.11957513808962 26.07099646741045 0
242 1 17 110.85150161749861 26.066687000056536 0
243 1 3 117.96332708304516 26.25166239812694 0
244 1 18 124.88101133084518 26.39631042181585 0
245 1 6 131.63896569675413 26.214971862900107 0
246 1 6 138.8466509612886 26.31859879826716 0
247 1 6 145.6902683195093 26.301754781126178 0
248 1 18 152.7586676231445 26.027207196859244 0
249 1 3 159.55299554412312 26.15035147357049 0
250 1 17 166.61785260113732 26.23059652482775 0
251 1 11 0.3252271468502957 30.082907912025394 0
252 1 13 7.037444753838936 30.319533355703257 0
253 1 12 14.098743102438137 30.046713387445017 0
254 1 11 21.050180473390512 30.318117850202295 0
255 1 16 28.045909168817868 30.010882749208726 0
256 1 17 34.77275395475893 30.08292718918411 0
257 1 11 41.62051564686595 30.10061331808526 0
258 1 11 48.50163593242342 30.019320460598003 0
259 1 11 55.444206879411844 30.371271773774573 0
260 1 11 62.43562272735985 30.174618178057504 0
261 1 11 69.29298201265058 30.385438416736193 0
262 1 17 76.3019941153503 30.147786902501295 0
263 1 16 83.33592579842599 30.38502874140281 0
264 1 11 90.3281906861502 30.136909762119053 0
265 1 12 97.22773736431567 30.021732885146395 0
266 1 13 104.29573769376562 30.32566634151245 0
267 1 11 111.18691825147562 30.37443699778798 0
268 1 14 118.0852886586935 30.191167567637798 0
269 1 6 124.82658511491086 30.17547844197624 0
270 1 19 131.77419875175866 30.355302493880785 0
271 1 19 138.8937162768522 30.00914498317613 0
272 1 19 145.5854575697895 30.143738698676653 0
273 1 6 152.81782531950614 30.176812848059896 0
274 1 14 159.47907944738165 30.04121412920202 0
275 1 11 166.3175980347796 30.16874279428085 0
276 1 5 -3.0983091733947408 32.10739666930277 0
277 1 17 3.83372449300372 32.29501217768545 0
278 1 16 10.617660124206704 32.31564706936796 0
279 1 11 17.46737260502521 32.323279394763325 0
280 1 12 24.57872002878998 32.18546516781821 0
281 1 13 31.28497124564841 32.09587125383537 0
282 1 21 38.30176545736235 32.27284430929283 0
283 1 21 45.13831016414164 32.198082419266086 0
284 1 21 52.35543790684977 32.18781678505543 0
285 1 21 59.13329625140016 32.35789197952496 0
286 1 21 66.2144492203232 32.03649829109743 0
287 1 21 72.98523468062335 32.208268162774814 0
288 1 13 80.02658051229051 32.3071640948954 0
289 1 12 86.95746891899257 32.137709148045715 0
290 1 11 93.88816991258267 32.25599253663804 0
291 1 16 100.81729529171989 32.343550232838695 0
292 1 17 107.76161199618744 32.172262487797894 0
293 1 3 114.34540778397026 32.175520581125305 0
294 1 18 121.26853004182986 32.00855823241284 0
295 1 19 128.3900833699925 32.29261455257854 0
296 1 2 135.28430553610812 32.22822940063746 0
297 1 2 142.12682174787915 32.30380240316532 0
298 1 19 149.2042699972494 32.12430075410469 0
299 1 18 156.11141245839883 32.38964401474236 0
300 1 3 163.0795168710028 32.07137622997729 0
301 1 2 -3.4065515110999347 36.15982202046298 0
302 1 11 3.838326912481806 36.03829749724233 0
303 1 13 10.441730530169966 36.21361514078557 0
304 1 12 17.663458271175003 36.021046419897026 0
305 1 11 24.38319834283977 36.219184414349435 0
306 1 16 31.17820965422527 36.11183003535864 0
307 1 13 38.388320350435464 36.05791278546734 0
308 1 13 45.25094369589178 36.057884768108316 0
309 1 13 52.23802492917981 36.34444211917601 0
310 1 13 58.91793712003993 36.32502690342292 0
311 1 13 65.96499850516646 36.1333393464567 0
312 1 13 72.79467552223208 36.03691497168903 0
313 1 16 80.04179247438488 36.07658618752603 0
314 1 11 86.9100022954758 36.133832881423814 0
315 1 12 93.70206919069695 36.399470049742014 0
316 1 13 100.70272067490185 36.284036239317416 0
317 1 11 107.40988567321578 36.14063794677622 0
318 1 14 114.58467610736017 36.18668569888134 0
319 1 6 121.64029983567494 36.00373084478645 0
320 1 2 128.5375062391985 36.161882443708194 0
321 1 20 135.37506874409647 36.00697768556487 0
322 1 20 142.33432924202643 36.135570418875474 0
323 1 2 149.22243559453693 36.01911375349127 0
324 1 6 156.17947749593483 36.312855262536566 0
325 1 14 162.88935355007848 36.34318953679588 0
326 1 3 0.1145734027944954 38.07281555966202 0
327 1 17 7.0556075217026795 38.01704586144116 0
328 1 16 14.061065436846091 38.382811790414465 0
329 1 11 21.10381905901732 38.19431398758689 0
330 1 12 27.80358877785212 38.33579159456409 0
331 1 16 34.92635986576169 38.036003779826444 0
332 1 16 41.935871980995095 38.28359821047689 0
333 1 16 48.73783616243247 38.37815036366163 0
334 1 16 55.673450086517676 38.209012459411 0
335 1 16 62.60215360995748 38.29020795087417 0
336 1 16 69.43671783545352 38.27447313391348 0
337 1 16 76.42084268826476 38.23784526253506 0
338 1 12 83.48054369312885 38.15600703613694 0
339 1 11 90.22725164312115 38.378459955616734 0
340 1 16 97.20702507001833 38.36821867969266 0
341 1 17 104.22991623532086 38.01471808013903 0
342 1 3 111.1299782979743 38.01703728009094 0
343 1 18 117.82726130831172 38.106429539086534 0
344 1 19 125.0618093591538 38.29011967635866 0
345 1 20 131.71192530610978 38.25155294759977 0
346 1 11 138.92224797504292 38.08230299176674 0
347 1 20 145.78012165373565 38.12405955017724 0
348 1 19 152.573047007505 38.24200947066554 0
349 1 18 159.50663322968603 38.18947713529725 0
350 1 3 166.42108929677997 38.249892880703115 0
351 1 14 0.37311283848781407 42.00263236292565 0
352 1 11 7.18479033374144 42.14112689098787 0
353 1 13 14.200807943153498 42.33453015378164 0
354 1 12 20.81887450857579 42.373447960940176 0
355 1 11 27.847787866308096 42.01751256254714 0
356 1 15 34.860178081373675 42.01139158395433 0
357 1 15 41.717594176802656 42.16447171367269 0
358 1 15 48.84588611168533 42.045670835733254 0
359 1 15 55.8235031772839 42.3396010890542 0
360 1 15 62.66680829089012 42.21821838543407 0
361 1 15 69.35094024170208 42.37290943194455 0
362 1 15 76.51356999363398 42.34131706797586 0
363 1 11 83.20535285348679 42.38083094700622 0
364 1 12 90.2059967503406 42.390260800456105 0
365 1 13 97.35962555327048 42.11936067311733 0
366 1 11 104.04875838402295 42.299515934625894 0
367 1 14 111.01477229001132 42.317616435563096 0
368 1 6 118.15168731375779 42.22622763023238 0
369 1 2 125.04121881418372 42.22789798182191 0
370 1 11 131.80347656494516 42.030985345526624 0
371 1 3 138.85783485249632 42.212859478016554 0
372 1 11 145.5123751341142 42.22278521156028 0
373 1 2 152.6446564689742 42.24791716718587 0
374 1 6 159.5501787476845 42.08003756020205 0
375 1 14 166.40637962672665 42.37078837057614 0
376 1 6 -3.299489175433614 44.22043678271937 0
377 1 3 3.4681574341628587 44.135624390457366 0
378 1 17 10.425655850383354 44.116437106848814 0
379 1 16 17.636924372056004 44.23681645511217 0
380 1 11 24.61244970878885 44.16680676960856 0
381 1 11 31.294727872063177 44.14728980649052 0
382 1 11 38.30993338197532 44.16682266121831 0
383 1 11 45.223221147602274 44.187019736144215 0
384 1 11 52.18571576478669 44.00986069427288 0
385 1 11 59.103751555273945 44.12988879999267 0
386 1 11 66.20952770823124 44.2405634961715 0
387 1 11 72.75517975684191 44.0655838447065 0
388 1 11 80.04392574554569 44.10268036677698 0
389 1 11 86.6345958838333 44.06245392247698 0
390 1 16 93.55290696504363 44.361266096594115 0
391 1 17 100.80919894709129 44.111891944622904 0
392 1 3 107.52554677034877 44.1404826943733 0
393 1 18 114.6207559319334 44.13919867744038 0
394 1 19 121.3884417261338 44.17919157245039 0
395 1 20 128.38937386162613 44.03590423728761 0
396 1 3 135.17496484892644 44.06722054892527 0
397 1 3 142.1703423285147 44.251471523428826 0
398 1 20 149.27738735684545 44.061243781486155 0
399 1 19 156.12171740477467 44.22823294484866 0
400 1 18 163.0553502685093 44.104310433460086 0
401 1 6 -3.2617376149996864 48.26023781605809 0
402 1 3 3.783889937053639 48.30519554168885 0
403 1 17 10.493510611173507 48.27623339765083 0
404 1 16 17.519608583053756 48.200343696026415 0
405 1 11 24.63518361636434 48.010879274282246 0
406 1 11 31.408727771825646 48.161768527064254 0
407 1 11 38.32386694803851 48.27157477341706 0
408 1 11 45.175747006889424 48.09353557050465 0
409 1 11 52.19982908130489 48.24742475939642 0
410 1 11 58.993142086633156 48.19227316523684 0
411 1 11 66.02948003373368 48.20063659311059 0
412 1 11 73.03052882803479 48.20335185349679 0
413 1 11 79.96150548464313 48.08637095879717 0
414 1 11 86.63013960675273 48.379422476819045 0
415 1 16 93.88612866009669 48.14839033361259 0
416 1 17 100.53712120914427 48.13015822254829 0
417 1 3 107.6016234616416 48.060849532083026 0
418 1 18 114.50761216644517 48.338711051824184 0
419 1 19 121.45514834436763 48.0573221292583 0
420 1 20 128.55569916388393 48.20015263359885 0
421 1 3 135.29440473966696 48.08027715499046 0
422 1 3 142.17867563811555 48.35368744894966 0
423 1 20 149.33686098559056 48.15082771660764 0
424 1 19 156.14360770439518 48.314969509668174 0
425 1 18 162.87683027621682 48.06958590277216 0
426 1 14 0.2853031613016395 50.26247846971368 0
427 1 11 7.248186637759418 50.20601119440988 0
428 1 13 14.016594714330244 50.26992978454423 0
429 1 12 21.11635481826161 50.18051018327464 0
430 1 11 27.93015533313387 50.170612121214226 0
431 1 15 34.723603833296586 50.39646174435968 0
432 1 15 41.6543856467408 50.144996852484674 0
433 1 15 48.71990481390318 50.02665931841403 0
434 1 15 55.54388795411046 50.20270321571291 0
435 1 15 62.437069527048784 50.381015816598996 0
436 1 15 69.51338962720878 50.39373453956743 0
437 1 15 76.45969812995972 50.16692893611837 0
438 1 11 83.39338490162146 50.14258828890517 0
439 1 12 90.1786597613993 50.29854132942397 0
440 1 13 97.26335449426753 50.31575513863147 0
441 1 11 104.00270335689324 50.031362295871915 0
442 1 14 110.95171708104569 50.019506741554125 0
443 1 6 117.80837957922702 50.21366507048337 0
444 1 2 125.0911996888672 50.10752229587065 0
445 1 11 131.88235692380042 50.14116711433888 0
446 1 3 138.74529950028605 50.04763421344453 0
447 1 11 145.5381745862006 50.3068574401239 0
448 1 2 152.65555332780025 50.10013177653357 0
449 1 6 159.720672811425 50.24433410641351 0
450 1 14 166.6209278650659 50.13989317089396 0
451 1 3 0.2816410284954702 54.0551750508347 0
452 1 17 7.265655387751254 54.11769409499587 0
453 1 16 13.88507166738964 54.12021377689884 0
454 1 11 20.910403381369942 54.37549164903929 0
455 1 12 27.950736448334023 54.13083554699624 0
456 1 16 34.84366975097178 54.15737516149058 0
457 1 16 41.73843461518235 54.37514211945241 0
458 1 16 48.60705016528478 54.345598243836996 0
459 1 16 55.69278572790033 54.33383449329711 0
460 1 16 62.45689141403276 54.10619594207841 0
461 1 16 69.29803806632512 54.348285460639296 0
462 1 16 76.3172550383469 54.07587985364618 0
463 1 12 83.25822404196938 54.22494629795142 0
464 1 11 90.26876775735906 54.030045751024765 0
465 1 16 97.05750182498178 54.14315370118097 0
466 1 17 104.29783198940828 54.35940682357088 0
467 1 3 111.11255734160933 54.33635594391119 0
468 1 18 117.90029019228325 54.155135350538394 0
469 1 19 125.09571746878636 54.044612121308965 0
470 1 20 131.7783524628277 54.301653434522194 0
471 1 11 138.85851178235117 54.058450299719276 0
472 1 20 145.71553669594448 54.118707683225956 0
473 1 19 152.6930640658546 54.39712942328917 0
474 1 18 159.35818072692086 54.323880895744665 0
475 1 3 166.52874703243293 54.051930694584755 0
476 1 2 -3.1118624303157008 56.23655392017962 0
477 1 11 3.5398301524297633 56.302609338441265 0
478 1 13 10.747500011886045 56.22950161671767 0
479 1 12 17.355066701172195 56.17307654452973 0
480 1 11 24.495892859888592 56.08347564486399 0
481 1 16 31.218340495705075 56.36636274274306 0
482 1 13 38.44636729824152 56.01373839254068 0
483 1 13 45.29109480704348 56.21414976675386 0
484 1 13 52.26172505435862 56.21114035445461 0
485 1 13 59.07160482691684 56.364420508550445 0
486 1 13 66.0984372250255 56.303397060551255 0
487 1 13 73.05724137005315 56.21338495908829 0
488 1 16 79.92899973507843 56.11621555473868 0
489 1 11 86.72028712721442 56.26328993251977 0
490 1 12 93.60254184182494 56.36983069719692 0
491 1 13 100.82049728688439 56.18646979426122 0
492 1 11 107.3891408244356 56.24765373329832 0
493 1 14 114.31851070704711 56.01755316702401 0
494 1 6 121.25448893724334 56.05875239750753 0
495 1 2 128.2168330786441 56.275859596191964 0
496 1 20 135.10543522215136 56.05069808434672 0
497 1 20 142.2729411848041 56.11481929126828 0
498 1 2 149.1180740214395 56.258480478890874 0
499 1 6 156.24542282849686 56.003877044381596 0
500 1 14 163.06391131134754 56.10504939409277 0
501 1 5 -3.1866062117676965 60.24579116267466 0
502 1 17 3.8032088193050075 60.04110302194767 0
503 1 16 10.39331364005901 60.11082851157953 0
504 1 11 17.514583069394796 60.29817092053455 0
505 1 12 24.54726018428028 60.29757914432172 0
506 1 13 31.227496950785675 60.184754754008765 0
507 1 21 38.26587538278818 60.22000310940321 0
508 1 21 45.21440615039278 60.24483654876891 0
509 1 21 52.00402795964322 60.06346018511831 0
510 1 21 59.0916977818011 60.389939411041226 0
511 1 21 66.11002248801682 60.15892793186542 0
512 1 21 73.1361981803005 60.39989367848876 0
513 1 13 79.93496700383072 60.36690827794083 0
514 1 12 86.93522142508579 60.31521746171479 0
515 1 11 93.64807465972208 60.10969734614163 0
516 1 16 100.82279129048852 60.04072398678807 0
517 1 17 107.72867704347094 60.0030729044505 0
518 1 3 114.6040657845195 60.34858299699534 0
519 1 18 121.62211044319575 60.12750636460671 0
520 1 19 128.4195414510414 60.058051147830184 0
521 1 2 135.2137090987143 60.2516468859493 0
522 1 2 142.38527401818786 60.2326164776118 0
523 1 19 149.0328047965831 60.34054172251299 0
524 1 18 156.23417270429732 60.0473544305418 0