
14309 atoms
14896 bonds
16659 angles
40 atom types
13 bond types
35 angle types

-5.680607966083864 171.52447279080386 xlo xhi
-2.0 148.0 ylo yhi
-4 4 zlo zhi


Masses

1 9.392276340744925e-05
2 0.00020663007949638833
3 0.000375691053629797
4 0.000882873976030023
5 0.00045082926435575645
6 0.0005635365804446955
7 0.0003005528429038376
8 0.0006386747911706549
9 0.0008640894233485332
10 0.0004320447116742666
11 0.0001878455268148985
12 0.0002629837375408579
13 0.001127073160889391
14 0.0009016585287115129
15 0.00123978047697833
16 0.001014365844800452
17 0.0006011056858076752
18 0.0006762438965336346
19 0.0012397804769783303
20 0.0007138130018966144
21 0.0007889512126225737
22 0.0004883983697187361
23 0.0005635365804446956
24 0.0005259674750817158
25 0.00016906097413340866
26 0.0008265203179855533
27 0.000751382107259594
28 0.0001878455268148985
29 0.00022541463217787822
30 0.0001502764214519188
31 0.0006011056858076752
32 0.0010519349501634317
33 0.0007138130018966144
34 0.000375691053629797
35 0.0005259674750817158
36 0.0006762438965336346
37 0.00045082926435575645
38 0.000751382107259594
39 0.0009767967394374722
40 0.0003381219482668173

Pair Coeffs

1 0.40509979849834776 0.44544935907016964 0.5
2 0.40509979849834776 0.44544935907016964 0.5
3 0.40509979849834776 0.44544935907016964 0.5
4 0.40509979849834776 0.44544935907016964 0.5
5 0.40509979849834776 0.44544935907016964 0.5
6 0.40509979849834776 0.44544935907016964 0.5
7 0.40509979849834776 0.44544935907016964 0.5
8 0.40509979849834776 0.44544935907016964 0.5
9 0.40509979849834776 0.44544935907016964 0.5
10 0.40509979849834776 0.44544935907016964 0.5
11 0.40509979849834776 0.44544935907016964 0.5
12 0.40509979849834776 0.44544935907016964 0.5
13 0.40509979849834776 0.44544935907016964 0.5
14 0.40509979849834776 0.44544935907016964 0.5
15 0.40509979849834776 0.44544935907016964 0.5
16 0.40509979849834776 0.44544935907016964 0.5
17 0.40509979849834776 0.44544935907016964 0.5
18 0.40509979849834776 0.44544935907016964 0.5
19 0.40509979849834776 0.44544935907016964 0.5
20 0.40509979849834776 0.44544935907016964 0.5
21 0.40509979849834776 0.44544935907016964 0.5
22 0.40509979849834776 0.44544935907016964 0.5
23 0.40509979849834776 0.44544935907016964 0.5
24 0.40509979849834776 0.44544935907016964 0.5
25 0.40509979849834776 0.44544935907016964 0.5
26 0.40509979849834776 0.44544935907016964 0.5
27 0.40509979849834776 0.44544935907016964 0.5
28 0.40509979849834776 0.44544935907016964 0.5
29 0.40509979849834776 0.44544935907016964 0.5
30 0.40509979849834776 0.44544935907016964 0.5
31 0.40509979849834776 0.44544935907016964 0.5
32 0.40509979849834776 0.44544935907016964 0.5
33 0.40509979849834776 0.44544935907016964 0.5
34 0.40509979849834776 0.44544935907016964 0.5
35 0.40509979849834776 0.44544935907016964 0.5
36 0.40509979849834776 0.44544935907016964 0.5
37 0.40509979849834776 0.44544935907016964 0.5
38 0.40509979849834776 0.44544935907016964 0.5
39 0.40509979849834776 0.44544935907016964 0.5
40 0.40509979849834776 0.44544935907016964 0.5

Bond Coeffs

1 37.5691053629797 0.5
2 45.082926435575644 0.5
3 30.05528429038376 0.5
4 120.22113716153504 0.5
5 210.38699003268633 0.5
6 142.76260037932286 0.5
7 75.1382107259594 0.5
8 105.19349501634316 0.5
9 135.24877930672693 0.5
10 90.16585287115129 0.5
11 150.2764214519188 0.5
12 195.35934788749444 0.5
13 67.62438965336347 0.5

Angle Coeffs

1 0.44188709024663303 180
2 0.7635808919461821 180
3 0.22624619020627612 180
4 14.479756173201672 180
5 77.60244324075273 180
6 24.247228416013257 180
7 3.5350967219730642 180
8 9.700305405094092 180
9 20.616684082546914 180
10 6.1086471355694565 180
11 28.280773775784514 180
12 62.132859985398596 180
13 2.5770855103183643 180
14 0.5598100380837111 120
15 0.4455309591754361 120
16 36.949440018626426 120
17 5.1817870753707735 120
18 9.424769866307166 120
19 1.2558896249114833 120
20 14.445726589864613 120
21 38.86947762614863 120
22 4.072284849014449 120
23 0.44188709024663325 120
24 0.29926744736279914 120
25 24.405682395126167 120
26 14.479756173201672 120
27 6.1705632818458485 120
28 24.247228416013257 120
29 13.193139254316405 120
30 9.700305405094092 120
31 1.3574771412376574 120
32 6.1086471355694565 120
33 3.535096721973066 120
34 28.280773775784528 120
35 2.5770855103183643 120

Atoms

1 1 1 -3.3281155018448603 0.08624841044193238 0
2 1 2 3.7569669529209304 0.05152150709855419 0
3 1 3 10.523432584830466 0.15573375402566106 0
4 1 4 17.597273871493297 0.04319412984438098 0
5 1 5 24.260077370666252 0.15379817666307566 0
6 1 6 31.2537189138155 0.19698589148681545 0
7 1 7 38.249311222175585 0.31693082282350715 0
8 1 8 45.05357337387758 0.365515135234855 0
9 1 9 52.175633996523715 0.3204822037580344 0
10 1 10 58.969361601892544 0.2374983303138246 0
11 1 10 66.0089841315704 0.2796936263193683 0
12 1 9 72.88423546730598 0.2763640126349783 0
13 1 8 79.92175080774909 0.34839390312653995 0
14 1 7 86.66160172656778 0.20988342306006766 0
15 1 6 93.7561577804412 0.10448271144869992 0
16 1 5 100.51471241950661 0.13768941452038944 0
17 1 4 107.59948175029183 0.18545060153093434 0
18 1 3 114.44740779613971 0.10417253260893614 0
19 1 2 121.4529659121684 0.2390694887002617 0
20 1 11 128.26782848980332 0.2626746349736486 0
21 1 11 135.27071387746506 0.30163096836737374 0
22 1 11 142.12937220526373 0.3071028800747617 0
23 1 11 149.1069928044163 0.2836595006122957 0
24 1 11 156.03219553852864 0.2370597802694958 0
25 1 11 162.8882797035909 0.27842452166232806 0
26 1 7 0.28816898101820887 2.061346552508739 0
27 1 12 7.150698159147652 2.201229716011169 0
28 1 13 14.007987764258504 2.184772252218545 0
29 1 14 20.79538861935374 2.228058088046003 0
30 1 9 27.764724361534682 2.325645353660726 0
31 1 6 34.90863215234488 2.0010192285961943 0
32 1 8 41.679611687984256 2.3173592514796764 0
33 1 15 48.50114527873262 2.0408997094779595 0
34 1 16 55.50741095826623 2.3242919652932637 0
35 1 17 62.41129677025168 2.314236379439402 0
36 1 16 69.44489539838777 2.1161980579150743 0
37 1 15 76.32745483100986 2.3677919971704458 0
38 1 8 83.16648481533464 2.3707518743746743 0
39 1 6 90.35601930220142 2.3502320476843237 0
40 1 9 97.39170228780925 2.048166220090227 0
41 1 14 104.0438856196267 2.364763604774035 0
42 1 13 111.22837217409632 2.386202826711373 0
43 1 12 118.11829843128903 2.1366469383316717 0
44 1 7 124.9535815639578 2.33953365046416 0
45 1 12 131.78339992631456 2.3982943969770716 0
46 1 12 138.61943432048128 2.016175423110856 0
47 1 12 145.7778791885988 2.056799220357996 0
48 1 12 152.7511846500871 2.2168479743292577 0
49 1 12 159.68663124443597 2.313519036788934 0
50 1 12 166.32432772094413 2.038673570502419 0
51 1 12 0.12733883454549533 6.377498501565479 0
52 1 7 7.062943018941297 6.048583136632854 0
53 1 18 14.219708670875008 6.1212626248443245 0
54 1 19 21.07124045170112 6.297075632314509 0
55 1 20 27.855343416420073 6.1702311875346885 0
56 1 21 34.80435449785626 6.049011798766963 0
57 1 22 41.668227924927685 6.181844389667825 0
58 1 16 48.60215364579829 6.055864534436107 0
59 1 15 55.67155114345444 6.344531238384986 0
60 1 16 62.39885404859504 6.030128517850752 0
61 1 15 69.41519789298519 6.283567772894571 0
62 1 16 76.37282602327079 6.080473896892781 0
63 1 22 83.47668672660166 6.299743630005128 0
64 1 21 90.4047542140864 6.129933475823129 0
65 1 20 97.31042273345379 6.1294642676736135 0
66 1 19 104.09679602287724 6.195031375518624 0
67 1 18 110.85222598720752 6.113613240993609 0
68 1 7 117.91832546044989 6.071738586064971 0
69 1 12 124.77277974504896 6.35478012960878 0
70 1 18 131.97898054524796 6.372297187563648 0
71 1 18 138.87473779901094 6.04175410777596 0
72 1 18 145.6067619984828 6.18445831082478 0
73 1 18 152.53500205499216 6.241125658318371 0
74 1 18 159.7382810223456 6.134320477770085 0
75 1 18 166.34993096958783 6.094838167724195 0
76 1 3 -3.312972804677047 8.198769883099477 0
77 1 7 3.8458457057501882 8.3244898812946 0
78 1 12 10.444137196744546 8.184299479126484 0
79 1 13 17.47252287219646 8.024243414638464 0
80 1 14 24.41058530279636 8.368940434643767 0
81 1 9 31.53420143864642 8.14071028123983 0
82 1 6 38.16661108729822 8.351794264860837 0
83 1 8 45.43071984914092 8.041646440924056 0
84 1 15 52.05915082194957 8.122251425339947 0
85 1 15 58.908006371477526 8.193333587432155 0
86 1 15 66.05141898082609 8.039564990007465 0
87 1 15 73.0553415985817 8.179249813388624 0
88 1 8 79.98134647001662 8.01751569097713 0
89 1 6 86.91853326162715 8.320761132972187 0
90 1 9 93.77651048672467 8.352753506601108 0
91 1 14 100.61149306910848 8.112350259545257 0
92 1 13 107.41512071153697 8.133936502322868 0
93 1 12 114.68193659068234 8.04990338739594 0
94 1 7 121.61561330978364 8.045324597157641 0
95 1 18 128.52720285877655 8.0989161225755 0
96 1 13 135.18075714103182 8.135636911232016 0
97 1 13 142.09519456102487 8.054801239567361 0
98 1 13 149.1311556195294 8.336017107087853 0
99 1 13 155.89443741615162 8.120188433301365 0
100 1 13 163.1024112532728 8.089939709126984 0
101 1 17 -3.194821838427016 12.011874276112927 0
102 1 12 3.735191462918014 12.282036555201167 0
103 1 7 10.76081510729294 12.297747533219606 0
104 1 18 17.460658750603553 12.384134630599991 0
105 1 19 24.283646814988455 12.278541789368964 0
106 1 20 31.36025582408627 12.122176039971706 0
107 1 21 38.217621953813634 12.227040376554138 0
108 1 22 45.13504587188325 12.077031584456236 0
109 1 16 52.20099216017168 12.090492116920423 0
110 1 15 59.09343254969027 12.325133205347173 0
111 1 15 66.04870349142446 12.12948380113979 0
112 1 16 72.84435364169654 12.299440845792898 0
113 1 22 80.01079909696578 12.169274452281211 0
114 1 21 86.85199831825365 12.105070834248675 0
115 1 20 93.69505371336487 12.22405443000423 0
116 1 19 100.76705228085264 12.294468304818821 0
117 1 18 107.43570176026755 12.10025621139932 0
118 1 7 114.3693793894407 12.293364552955758 0
119 1 12 121.40015568492414 12.054554913498823 0
120 1 13 128.17890108356028 12.018997075537097 0
121 1 19 135.24184885351136 12.145886443007484 0
122 1 19 142.36165295494783 12.229425960510124 0
123 1 19 149.1079245074146 12.04196952688754 0
124 1 19 156.17168529965147 12.050010024742152 0
125 1 19 162.97123354077888 12.397148843102265 0
126 1 18 0.08079838814509649 14.080761811515334 0
127 1 7 6.933081311642603 14.111094464431584 0
128 1 12 13.885631301696392 14.04081979882244 0
129 1 13 21.127794030006367 14.136879148844105 0
130 1 14 28.03875092250614 14.369670662964767 0
131 1 9 34.80045218446695 14.29164133016107 0
132 1 6 41.71660102591876 14.29611381255135 0
133 1 8 48.512408670124735 14.128922969831905 0
134 1 16 55.776239089566694 14.37448503993304 0
135 1 16 62.44673360031999 14.035076349177931 0
136 1 16 69.38924544625803 14.297933020910724 0
137 1 8 76.45098212726793 14.367322196877044 0
138 1 6 83.34516142178704 14.069870918187 0
139 1 9 90.10307543052657 14.285575821886479 0
140 1 14 97.0586961867799 14.38867433201097 0
141 1 13 103.98005417262236 14.365959201279288 0
142 1 12 110.86177097390444 14.324505263729938 0
143 1 7 118.08446900827175 14.162608647612165 0
144 1 18 124.86176198433165 14.31749255109851 0
145 1 19 131.71771537588182 14.307810215575449 0
146 1 14 138.9091304995725 14.037469091799936 0
147 1 14 145.55699468184483 14.079251659067788 0
148 1 14 152.67580442958675 14.00110887958564 0
149 1 14 159.4247053911892 14.25247832644947 0
150 1 14 166.47693856887426 14.028719292177763 0
151 1 13 0.30022985844359806 18.38177959231229 0
152 1 12 7.286414019743294 18.106051532641906 0
153 1 7 14.091328485761911 18.149993531183892 0
154 1 18 21.092157792399686 18.273994730598886 0
155 1 19 27.8814063270325 18.23801357177995 0
156 1 20 34.941483729947734 18.11566440901912 0
157 1 21 41.78062247235496 18.156084968451232 0
158 1 22 48.78807603278628 18.16351985756186 0
159 1 8 55.52154495907169 18.04143433107302 0
160 1 8 62.48425041736293 18.009470118287965 0
161 1 8 69.29272973251565 18.070588683104617 0
162 1 22 76.23525243131685 18.142713230080144 0
163 1 21 83.23449072135338 18.31405756307752 0
164 1 20 90.11691692567031 18.038303756666945 0
165 1 19 97.08636143183853 18.096989912808667 0
166 1 18 104.04482521646067 18.140016994810196 0
167 1 7 111.1620852303446 18.01251077488564 0
168 1 12 117.79348137271258 18.262433208257242 0
169 1 13 125.06524619046674 18.110054894923056 0
170 1 14 131.81250553585232 18.275492142664987 0
171 1 20 138.6426177862366 18.34471637664998 0
172 1 20 145.86109538702175 18.362742889032 0
173 1 20 152.80760746375125 18.39975405910866 0
174 1 20 159.57956658973816 18.139312966939542 0
175 1 20 166.5134566629541 18.337570603219657 0
176 1 4 -3.408406861910658 20.006135198382562 0
177 1 18 3.6914329787151763 20.014085234566156 0
178 1 7 10.431546799525432 20.232825469752054 0
179 1 12 17.59568869253954 20.06125164200254 0
180 1 13 24.322728904361355 20.39942599308153 0
181 1 14 31.43498604532336 20.225662890150968 0
182 1 9 38.1963239121171 20.0260088255684 0
183 1 6 45.27234288034227 20.173023665331673 0
184 1 22 52.15952677490424 20.21888299251586 0
185 1 22 58.99449489029368 20.09848051338402 0
186 1 22 65.8541040300547 20.1001424045572 0
187 1 22 72.84308899168283 20.025719226252082 0
188 1 6 79.68894872635447 20.074017490527645 0
189 1 9 86.98573757010132 20.33677352805209 0
190 1 14 93.88571536077937 20.01114753221834 0
191 1 13 100.78154345034092 20.279734916262814 0
192 1 12 107.47324924565991 20.287368057297947 0
193 1 7 114.54971812312405 20.06554572464755 0
194 1 18 121.43393998406582 20.08502807313653 0
195 1 19 128.40901635756111 20.033596688105614 0
196 1 20 135.30113638811432 20.359348714403676 0
197 1 9 142.26543703425295 20.086356091158308 0
198 1 9 149.03207184781206 20.332387309033574 0
199 1 9 156.28372873643673 20.357008975590883 0
200 1 9 162.99857511402266 20.18019675342722 0
201 1 20 -3.2844962539187907 24.38368351165448 0
202 1 13 3.7282810082419298 24.04186563310949 0
203 1 12 10.401874534588973 24.104126615466477 0
204 1 7 17.60817499980359 24.024101221447037 0
205 1 18 24.25443976295164 24.27392971445606 0
206 1 19 31.27031222305169 24.097198279456027 0
207 1 20 38.24730620342665 24.253871490279074 0
208 1 21 45.328544294748895 24.282095237296737 0
209 1 23 52.35167028433925 24.228701690292496 0
210 1 23 59.26573648599845 24.168006956183234 0
211 1 23 65.89633416530191 24.309636908616575 0
212 1 23 73.06331868513814 24.057656087458614 0
213 1 21 79.91846863203408 24.36242034687691 0
214 1 20 86.99925947503783 24.10260130177801 0
215 1 19 93.75404657743488 24.357803400216564 0
216 1 18 100.82679624938875 24.150011639820406 0
217 1 7 107.66321194810637 24.38865025096697 0
218 1 12 114.34892210739322 24.22000659101134 0
219 1 13 121.25915043565858 24.391792997817518 0
220 1 14 128.51152804260335 24.02396870968399 0
221 1 9 135.4305129983867 24.34994374309484 0
222 1 21 142.37877684165935 24.01987754675361 0
223 1 21 149.05546515418874 24.34514901578423 0
224 1 21 156.1279358123181 24.09165420244776 0
225 1 21 162.85611212770345 24.185883491057606 0
226 1 19 0.36299882252288296 26.195632422095553 0
227 1 18 7.271133514801438 26.3545531613008 0
228 1 7 14.249175027617154 26.07672046050688 0
229 1 12 20.94113490388107 26.2974549362049 0
230 1 13 27.92888376952452 26.07969976923996 0
231 1 14 34.695678426188174 26.039937826850167 0
232 1 9 41.95257181023272 26.358503048122056 0
233 1 21 48.79014305096199 26.027687043920167 0
234 1 21 55.49166093211061 26.071678533946585 0
235 1 21 62.47321493029094 26.203762009547397 0
236 1 21 69.3943760968501 26.362351756742246 0
237 1 21 76.52466920659896 26.310794051087697 0
238 1 9 83.49596663078353 26.069037960230506 0
239 1 14 90.1973042330636 26.221757220310003 0
240 1 13 97.38467811205473 26.290420372056655 0
241 1 12 103.98391379285877 26.165426791148462 0
242 1 7 110.86402041402523 26.248816056327467 0
243 1 18 117.847985336199 26.205603509633384 0
244 1 19 124.94868174389954 26.272457953611845 0
245 1 20 131.9261633855965 26.128228818263207 0
246 1 21 138.77431590972202 26.190824535240857 0
247 1 23 145.85175975915595 26.39461428986737 0
248 1 23 152.59292631277685 26.095098531186682 0
249 1 23 159.64586798343575 26.097605418325312 0
250 1 23 166.36230107566587 26.213149812237344 0
251 1 14 0.3816207228970694 30.36535574095266 0
252 1 13 7.111059510743188 30.110731236382573 0
253 1 12 14.01333669304442 30.27998715208317 0
254 1 7 21.04562311260443 30.20449490190766 0
255 1 18 27.985745974254947 30.074786580178813 0
256 1 19 34.72764042956224 30.197286223881115 0
257 1 20 41.59936060788574 30.122116164801437 0
258 1 9 48.643896858740575 30.114864346125486 0
259 1 9 55.80117656873961 30.235827714539653 0
260 1 9 62.63874259735088 30.21286262342114 0
261 1 9 69.48856451020316 30.006748826402337 0
262 1 9 76.29119915126168 30.14647057118306 0
263 1 20 83.41416418673734 30.185764811738803 0
264 1 19 90.30198924405178 30.227960858742083 0
265 1 18 97.18047144175353 30.02302355999082 0
266 1 7 103.9316322104276 30.30994107043192 0
267 1 12 111.21163225447447 30.33270124454401 0
268 1 13 118.12980611782652 30.23740864806936 0
269 1 14 124.90716387852517 30.13673717884263 0
270 1 9 131.8097500100039 30.085529231401686 0
271 1 6 138.80553995079848 30.012444128515728 0
272 1 22 145.78802945601186 30.286119392611667 0
273 1 22 152.80246073333348 30.398845755201442 0
274 1 22 159.70831161406477 30.182937252192907 0
275 1 22 166.37082244778944 30.37710082627417 0
276 1 5 -3.298448801687545 32.17747137568616 0
277 1 19 3.7313924660353592 32.32167112066907 0
278 1 18 10.65036732321414 32.31047020291339 0
279 1 7 17.408236403265263 32.203936256100654 0
280 1 12 24.432205768123527 32.29644911962547 0
281 1 13 31.22529727272131 32.19383760357748 0
282 1 14 38.38767422253692 32.33152169825321 0
283 1 20 45.098785795753216 32.10395585929076 0
284 1 20 51.97564334558885 32.32054780693639 0
285 1 20 59.05471335785366 32.233685409055795 0
286 1 20 66.05882144389629 32.26168391194891 0
287 1 20 72.82121605809448 32.15871001252115 0
288 1 20 79.7241398941667 32.18780302569558 0
289 1 14 86.60355630090551 32.30964270369101 0
290 1 13 93.76179104844827 32.008994940986035 0
291 1 12 100.64011165733389 32.15729518243934 0
292 1 7 107.55140169357895 32.02491036559955 0
293 1 18 114.45014707463875 32.042061203122095 0
294 1 19 121.40385623656672 32.0704759268221 0
295 1 20 128.57160583414262 32.10090906437601 0
296 1 21 135.35599380526833 32.22846989191175 0
297 1 22 142.3607153075353 32.10323656731196 0
298 1 8 149.19155849658273 32.36013422475441 0
299 1 8 156.11782257140885 32.26519115843333 0
300 1 8 163.0992549257906 32.335242411013816 0
301 1 24 -3.1293207741649023 36.37699877073331 0
302 1 14 3.5189215543797823 36.00085702358765 0
303 1 13 10.46297762545042 36.24812253215441 0
304 1 12 17.398271852259377 36.03101650328384 0
305 1 7 24.38277841366944 36.243499921523465 0
306 1 18 31.283198430394417 36.16640134330316 0
307 1 19 38.22228995941954 36.3740183051693 0
308 1 14 45.220148124379854 36.00251750966461 0
309 1 14 51.9682151769828 36.248910402839336 0
310 1 14 58.937038980564026 36.086761912384965 0
311 1 14 65.96087159741958 36.314489007393384 0
312 1 14 73.13705162022903 36.317867227520935 0
313 1 14 79.82152575512598 36.197377351307 0
314 1 19 86.8358139725019 36.24674623097533 0
315 1 18 93.61458887043749 36.36087352482007 0
316 1 7 100.65661549985411 36.109741231723135 0
317 1 12 107.64258328971026 36.21225499281179 0
318 1 13 114.62254792765069 36.306770621255104 0
319 1 14 121.52454678247908 36.21954384150171 0
320 1 9 128.33970292038168 36.39432000639185 0
321 1 6 135.48806416334435 36.227323674555066 0
322 1 8 142.3995342481342 36.17182275752888 0
323 1 16 149.2867507002753 36.35007171505098 0
324 1 16 156.1682018374409 36.36834359098275 0
325 1 16 162.92923306446735 36.26815082351992 0
326 1 20 0.17945965770013667 38.1507181097293 0
327 1 19 7.237475310864815 38.01601905325174 0
328 1 18 13.901372304688556 38.12483704367965 0
329 1 7 21.101879933299003 38.270736021620344 0
330 1 12 28.03086430280101 38.09683419820644 0
331 1 13 34.89678595481058 38.3222972260154 0
332 1 19 41.68606791499187 38.056250041010536 0
333 1 19 48.77518823655872 38.07802493582316 0
334 1 19 55.81023396413747 38.31821316853761 0
335 1 19 62.45808034209687 38.33115754431065 0
336 1 19 69.67407480769171 38.147565105921906 0
337 1 19 76.38651213922402 38.38497534494461 0
338 1 19 83.48505300245213 38.23014990407412 0
339 1 13 90.28804848791113 38.340301905776926 0
340 1 12 97.01369025680869 38.11313467736355 0
341 1 7 104.1808723716565 38.394873160525776 0
342 1 18 111.18551097490563 38.20127803075471 0
343 1 19 117.94063489378627 38.312474999176054 0
344 1 20 124.81575551010313 38.05328526989825 0
345 1 21 131.93465018748563 38.25415660492113 0
346 1 22 138.82035311913273 38.227911260324824 0
347 1 16 145.73843288065316 38.06977627566098 0
348 1 15 152.49332616059704 38.032041734551306 0
349 1 15 159.3986685691318 38.353647307754244 0
350 1 16 166.38911765462865 38.27210791849609 0
351 1 9 0.15277831635491404 42.14324299785206 0
352 1 14 7.032759554948551 42.00926894044215 0
353 1 13 14.075391973040288 42.221913915020004 0
354 1 12 21.128471475233173 42.10490845530188 0
355 1 7 28.04970191775221 42.257936725223345 0
356 1 18 34.888858841360985 42.308733152622764 0
357 1 13 41.75052932936152 42.2399818490922 0
358 1 13 48.61741939320035 42.153729439625785 0
359 1 13 55.59034622247956 42.22332957197084 0
360 1 13 62.67934253182882 42.29444528672619 0
361 1 13 69.32091173246005 42.3751400524493 0
362 1 13 76.50365256640815 42.17953765727917 0
363 1 13 83.3411394844374 42.16795451775967 0
364 1 18 90.39229014458535 42.1789269880125 0
365 1 7 97.01379988417689 42.058618149360626 0
366 1 12 103.96519853323231 42.25797064650951 0
367 1 13 111.18752403814176 42.28658662995558 0
368 1 14 118.11964388004795 42.39680688498621 0
369 1 9 124.79784976350066 42.26077093828861 0
370 1 6 131.68065980655012 42.15425129714445 0
371 1 8 138.7544240157602 42.21321601495993 0
372 1 15 145.74902202580478 42.32047007002244 0
373 1 15 152.7338441586487 42.151307627030775 0
374 1 15 159.72441553278077 42.14056123433629 0
375 1 15 166.44724021064454 42.35108945201319 0
376 1 6 -3.0755454804069493 44.21694620406349 0
377 1 20 3.710566020745511 44.04750316254777 0
378 1 19 10.679292673323852 44.27378484355477 0
379 1 18 17.422273213891422 44.08131853687932 0
380 1 7 24.594843204276767 44.09236365176046 0
381 1 12 31.249772468545576 44.01498439860008 0
382 1 18 38.300003127821505 44.323367190507405 0
383 1 18 45.09361790515741 44.323541690533496 0
384 1 18 52.03894944514373 44.12955369083908 0
385 1 18 59.12908069112767 44.16315783072145 0
386 1 18 65.93116761756293 44.206176086929254 0
387 1 18 72.87581002791214 44.09585332883221 0
388 1 18 79.94695967690076 44.03254985118484 0
389 1 18 86.6322673643732 44.28794025373392 0
390 1 12 93.57766252963128 44.091214223872825 0
391 1 7 100.63007072819038 44.12416757995911 0
392 1 18 107.76626499337118 44.16476684304677 0
393 1 19 114.35647608441128 44.30869319773856 0
394 1 20 121.60338438344165 44.16765290587929 0
395 1 21 128.33457575585163 44.02672889566928 0
396 1 22 135.1361685022573 44.235261123881294 0
397 1 16 142.34570786565254 44.06625239483349 0
398 1 15 149.33988736402998 44.265257416611725 0
399 1 16 155.94560994160034 44.16823171601632 0
400 1 15 163.07853624900633 44.37294875455598 0
401 1 5 -3.3558077838366076 48.104975390006764 0
402 1 9 3.857712387297244 48.21626689269345 0
403 1 14 10.468501822261684 48.33092801771259 0
404 1 13 17.536164024371136 48.35157211434534 0
405 1 12 24.316101446071734 48.18101915277885 0
406 1 7 31.292945156491495 48.36118768206673 0
407 1 12 38.485354861452194 48.30240209333861 0
408 1 12 45.11439854991391 48.15525726365391 0
409 1 12 52.07272684398511 48.30805023504589 0
410 1 12 59.163946826354056 48.25310390775663 0
411 1 12 65.94581412156663 48.10013988512715 0
412 1 12 72.7609797398016 48.08557677233006 0
413 1 12 79.77532778181346 48.262894834513155 0
414 1 12 86.70641314751292 48.22935316580327 0
415 1 7 93.6517633434501 48.20235584173071 0
416 1 12 100.85193184749922 48.16533759420325 0
417 1 13 107.76709634065445 48.334176056785545 0
418 1 14 114.57762761688475 48.117769009008626 0
419 1 9 121.47614642887105 48.255578610753076 0
420 1 6 128.24388423167892 48.29709135707787 0
421 1 8 135.3843074347101 48.24552830760004 0
422 1 15 142.3526187755605 48.322562993049644 0
423 1 16 149.22617540199622 48.388979312449315 0
424 1 17 155.95760618212967 48.162458465340784 0
425 1 16 162.88649748652105 48.356266828081274 0
426 1 21 0.1558104506163962 50.039874785224875 0
427 1 20 7.111716481807007 50.33654068338727 0
428 1 19 13.93777669035352 50.04644325736154 0
429 1 18 20.980268829547107 50.26612312376756 0
430 1 7 28.068308813998957 50.01637234870924 0
431 1 7 34.85932765906834 50.072618531108276 0
432 1 7 41.612164231668295 50.24302662013105 0
433 1 7 48.7220211890632 50.200928939782685 0
434 1 7 55.61562812579027 50.25667128883231 0
435 1 7 62.53457910755873 50.31782301117276 0
436 1 7 69.39634048076346 50.112354505602084 0
437 1 7 76.34029998647351 50.03531162545256 0
438 1 7 83.23628239478997 50.06230686731939 0
439 1 7 90.42735896909558 50.062310716223244 0
440 1 7 97.14033140694784 50.338832667572866 0
441 1 18 103.928040749872 50.09554809617492 0
442 1 19 110.88711058872961 50.0030473166144 0
443 1 20 118.11866801790319 50.1912869505671 0
444 1 21 124.99022393452555 50.080175518291576 0
445 1 22 131.95720546457457 50.128899151734366 0
446 1 16 138.70226636810014 50.22356164612481 0
447 1 15 145.84794067267057 50.26032945707222 0
448 1 17 152.56399038544126 50.14280273415085 0
449 1 17 159.4727116065115 50.330074145688265 0
450 1 15 166.45697435012326 50.22646799523685 0
451 1 21 0.16314576056296431 54.035450264458184 0
452 1 20 7.0235954291823015 54.30057614635432 0
453 1 19 13.866168188811292 54.09379933181962 0
454 1 18 21.08446937571419 54.09911548106374 0
455 1 7 27.789847367535245 54.002985863957456 0
456 1 7 34.89646487365858 54.2197033533023 0
457 1 7 41.58090225037913 54.124035642076734 0
458 1 7 48.681709434733044 54.060339136376165 0
459 1 7 55.61898840360001 54.29104977335559 0
460 1 7 62.4812713963791 54.08115393577614 0
461 1 7 69.39366944396517 54.23726451793408 0
462 1 7 76.56469983660553 54.118678010329596 0
463 1 7 83.53355241825236 54.33358012147597 0
464 1 7 90.34572188877856 54.382071028944736 0
465 1 7 97.18355969175721 54.36503509701649 0
466 1 18 104.19193864699535 54.228628810919716 0
467 1 19 110.8606733779244 54.21075677896456 0
468 1 20 118.07420663849943 54.17536838979441 0
469 1 21 124.75190869475807 54.17245237715329 0
470 1 22 131.94201077721706 54.00277580924644 0
471 1 16 138.7447826527599 54.011522888937755 0
472 1 15 145.6380811384217 54.249489536027994 0
473 1 17 152.612872080211 54.04048175818373 0
474 1 17 159.4808974335014 54.0317326943786 0
475 1 15 166.61469223738843 54.139111890797615 0
476 1 5 -3.3602724244101347 56.37241628395327 0
477 1 9 3.468404453982797 56.13589556498995 0
478 1 14 10.778526734244782 56.09997351235366 0
479 1 13 17.668399194474738 56.04136490543183 0
480 1 12 24.34744714727891 56.16542933041668 0
481 1 7 31.35915427462891 56.1610217389862 0
482 1 12 38.20203726997996 56.104496945122534 0
483 1 12 45.38016631544834 56.08534191780512 0
484 1 12 52.110672532003385 56.083884096944914 0
485 1 12 59.260966727791505 56.31157953237784 0
486 1 12 66.12025513071991 56.03544605371239 0
487 1 12 72.94903183361961 56.357621807648314 0
488 1 12 79.80817517310426 56.39980432775774 0
489 1 12 86.76469035275957 56.398252449169654 0
490 1 7 93.85615103079219 56.16619064718268 0
491 1 12 100.55354174845655 56.33743223131073 0
492 1 13 107.78080794873061 56.16773728296552 0
493 1 14 114.56258901286674 56.206854993206754 0
494 1 9 121.40154525035811 56.004945972599806 0
495 1 6 128.47824910129117 56.225389100323774 0
496 1 8 135.1582582852135 56.22609700431398 0
497 1 15 142.24509626754877 56.12484209455829 0
498 1 16 148.9777873982497 56.06980729518546 0
499 1 17 156.17797275386573 56.04553542840889 0
500 1 16 163.0123096903633 56.39663732679219 0
501 1 6 -3.263835937224476 60.24731752267692 0
502 1 20 3.5887932366135207 60.295018909702264 0
503 1 19 10.692024510335493 60.00519506147789 0
504 1 18 17.46807232394484 60.223336062045284 0
505 1 7 24.57687229417527 60.269202383932914 0
506 1 12 31.339261628108673 60.10721346039306 0
507 1 18 38.225381195026046 60.17805568970445 0
508 1 18 45.38281233698087 60.190503086732356 0
509 1 18 52.131682386937094 60.34993675723107 0
510 1 18 59.01874437542269 60.132495056931454 0
511 1 18 66.08428061432059 60.3468369619913 0
512 1 18 72.77182364297364 60.28242578128175 0
513 1 18 80.04408265750352 60.231104345632126 0
514 1 18 86.84329950022753 60.16781280325226 0
515 1 12 93.71480278975469 60.343547243604995 0
516 1 7 100.74729896076398 60.19853697885496 0
517 1 18 107.74586840446902 60.03154968998537 0
518 1 19 114.66741626552783 60.05171722072339 0
519 1 20 121.38695104287777 60.17908439741453 0
520 1 21 128.45592819818208 60.347039429033465 0
521 1 22 135.39042829564156 60.25473700821857 0
522 1 16 142.0629382810671 60.396784512601656 0
523 1 15 149.29456539750302 60.1075802618062 0
524 1 16 156.22519594813548 60.077930666084946 0
525 1 15 163.20141870863995 60.0959653558878 0
526 1 9 0.3576325747506144 62.29152637747694 0
527 1 14 7.254017500946282 62.3298236130895 0