
14309 atoms
14896 bonds
16659 angles
37 atom types
11 bond types
27 angle types

-5.680607966083864 171.52447279080386 xlo xhi
-2.0 148.0 ylo yhi
-4 4 zlo zhi


Masses

1 0.0002583995559191306
2 0.0006119989482295197
3 0.00029919948580109856
4 0.00035359939231038916
5 0.0007751986677573916
6 0.0007479987145027464
7 0.0005439990650929064
8 0.0005167991118382612
9 0.0008703985041486503
10 0.0006799988313661331
11 0.00038079934556503446
12 0.0008703985041486502
13 0.0011967979432043942
14 0.0009519983639125862
15 0.0008159985976393596
16 0.0004351992520743252
17 0.0005983989716021971
18 0.0011695979899497488
19 0.0010879981301858128
20 0.00043519925207432516
21 0.0002719995325464532
22 0.0004895991585836158
23 0.0004215992754470025
24 0.0002447995792918079
25 0.0006255989248568424
26 0.0008023986210120371
27 0.0005167991118382612
28 0.0007071987846207783
29 0.00032639943905574386
30 0.0002719995325464532
31 0.00021759962603716258
32 0.0004895991585836158
33 0.0007615986911300689
34 0.0007887986443847144
35 0.0008159985976393597
36 0.0006799988313661331
37 0.0005439990650929064

Pair Coeffs

1 0.40509979849834776 0.44544935907016964 0.5
2 0.40509979849834776 0.44544935907016964 0.5
3 0.40509979849834776 0.44544935907016964 0.5
4 0.40509979849834776 0.44544935907016964 0.5
5 0.40509979849834776 0.44544935907016964 0.5
6 0.40509979849834776 0.44544935907016964 0.5
7 0.40509979849834776 0.44544935907016964 0.5
8 0.40509979849834776 0.44544935907016964 0.5
9 0.40509979849834776 0.44544935907016964 0.5
10 0.40509979849834776 0.44544935907016964 0.5
11 0.40509979849834776 0.44544935907016964 0.5
12 0.40509979849834776 0.44544935907016964 0.5
13 0.40509979849834776 0.44544935907016964 0.5
14 0.40509979849834776 0.44544935907016964 0.5
15 0.40509979849834776 0.44544935907016964 0.5
16 0.40509979849834776 0.44544935907016964 0.5
17 0.40509979849834776 0.44544935907016964 0.5
18 0.40509979849834776 0.44544935907016964 0.5
19 0.40509979849834776 0.44544935907016964 0.5
20 0.40509979849834776 0.44544935907016964 0.5
21 0.40509979849834776 0.44544935907016964 0.5
22 0.40509979849834776 0.44544935907016964 0.5
23 0.40509979849834776 0.44544935907016964 0.5
24 0.40509979849834776 0.44544935907016964 0.5
25 0.40509979849834776 0.44544935907016964 0.5
26 0.40509979849834776 0.44544935907016964 0.5
27 0.40509979849834776 0.44544935907016964 0.5
28 0.40509979849834776 0.44544935907016964 0.5
29 0.40509979849834776 0.44544935907016964 0.5
30 0.40509979849834776 0.44544935907016964 0.5
31 0.40509979849834776 0.44544935907016964 0.5
32 0.40509979849834776 0.44544935907016964 0.5
33 0.40509979849834776 0.44544935907016964 0.5
34 0.40509979849834776 0.44544935907016964 0.5
35 0.40509979849834776 0.44544935907016964 0.5
36 0.40509979849834776 0.44544935907016964 0.5
37 0.40509979849834776 0.44544935907016964 0.5

Bond Coeffs

1 103.35982236765221 0.5
2 141.43975692415566 0.5
3 65.27988781114877 0.5
4 54.39990650929064 0.5
5 43.519925207432514 0.5
6 97.91983171672317 0.5
7 152.31973822601378 0.5
8 157.75972887694286 0.5
9 163.19971952787193 0.5
10 135.9997662732266 0.5
11 108.79981301858128 0.5

Angle Coeffs

1 9.201825999769525 180
2 23.57942758010631 180
3 2.3182322973613854 180
4 1.341569616528579 180
5 0.6868836436626325 180
6 7.824034003594676 180
7 29.45013622203537 180
8 32.719541377515526 180
9 36.22237964627165 180
10 20.962025258259054 180
11 10.732556932228633 180
12 13.237674955756022 120
13 1.6995837957194906 120
14 1.2628957786382318 120
15 30.998872373026938 120
16 26.55599680811704 120
17 10.732556932228633 120
18 9.201825999769525 120
19 3.7034483120069273 120
20 0.9085762482309954 120
21 1.341569616528579 120
22 12.363460585006495 120
23 7.824034003594676 120
24 34.381973464862874 120
25 32.719541377515526 120
26 14.196503878609304 120
27 20.962025258259054 120

Atoms

1 1 1 -3.460812457063875 0.26706783909904935 0
2 1 2 3.782284328627349 0.2199912350642177 0
3 1 3 10.679679953098454 0.3932548139409432 0
4 1 4 17.423510445748818 0.07699105682549004 0
5 1 5 24.249834740362893 0.12282540031265539 0
6 1 6 31.190287570223013 0.17951640318434126 0
7 1 7 38.167289886387735 0.3185983008021526 0
8 1 7 45.0794213785412 0.31473059506475937 0
9 1 6 52.102301858491785 0.20708313328302785 0
10 1 5 59.14633971412202 0.030806300069175355 0
11 1 4 66.0438070330889 0.17546127350083307 0
12 1 3 72.96666255319718 0.27962901331380485 0
13 1 2 79.86145664803774 0.32858998620752194 0
14 1 8 86.81844115454166 0.06476824608569043 0
15 1 8 93.76366670696208 0.15091709245495274 0
16 1 8 100.62197174021736 0.11298876631671449 0
17 1 8 107.78317011003432 0.3508743152555309 0
18 1 8 114.61109009279932 0.18211327256393517 0
19 1 8 121.2695411856816 0.3049031786087801 0
20 1 2 128.42922877605417 0.19974566690925474 0
21 1 3 135.40933383685115 0.39039078576697017 0
22 1 4 142.15688500119063 0.058746553057843265 0
23 1 5 149.27102609394927 0.10373812850575082 0
24 1 6 155.8910893195925 0.24424962112192827 0
25 1 7 162.87314823172693 0.14197939307934862 0
26 1 9 0.0012583648988505837 2.2127503376550894 0
27 1 10 7.191507263819039 2.132243772607262 0
28 1 11 14.112997557420533 2.0133677191872152 0
29 1 12 21.094886444045652 2.0546511739777866 0
30 1 13 28.00699128213211 2.1509024538547132 0
31 1 14 34.705731937846025 2.346828564259874 0
32 1 15 41.601226531308804 2.272135840306895 0
33 1 14 48.59710758899296 2.2082609859399414 0
34 1 13 55.59445332342433 2.352557977876774 0
35 1 12 62.473077569640324 2.282268907934666 0
36 1 11 69.41100436717261 2.147862075755122 0
37 1 10 76.39161696262076 2.1740932003425706 0
38 1 9 83.24184132645034 2.2503820952413913 0
39 1 10 90.22727309568752 2.0460513577530572 0
40 1 10 97.15711314176649 2.216413544949488 0
41 1 10 103.95162699261714 2.3910327120146615 0
42 1 10 111.07318349976096 2.3654850243796015 0
43 1 10 118.13358699747931 2.246024575535868 0
44 1 9 124.79715806254968 2.165641708486285 0
45 1 10 131.71736618263947 2.3927911778799418 0
46 1 11 138.67192340661575 2.3766869050844552 0
47 1 12 145.71708145823618 2.164919443670843 0
48 1 13 152.660489660789 2.1372172713226543 0
49 1 14 159.509665371299 2.2238740001417474 0
50 1 15 166.39494832354308 2.1254130296855283 0
51 1 10 0.0639567293345622 6.010070968471467 0
52 1 9 6.947538709287009 6.153632099096376 0
53 1 16 14.227351522723001 6.33046941091023 0
54 1 17 21.124520774627612 6.091565143666114 0
55 1 18 27.958210788803704 6.321243188217511 0
56 1 19 34.834373865875534 6.1251189663279995 0
57 1 14 41.76916649402371 6.189732244345697 0
58 1 19 48.56719839417504 6.287154933837331 0
59 1 18 55.58748025742057 6.0133527801207265 0
60 1 17 62.467561990835186 6.23295927277714 0
61 1 16 69.5506482143028 6.364894524087403 0
62 1 9 76.27669329234571 6.060747843428114 0
63 1 10 83.26357600566442 6.043874246492535 0
64 1 20 90.20472332015626 6.367400090306931 0
65 1 20 97.3027218943008 6.222821673090003 0
66 1 20 103.93349591843742 6.125615105633992 0
67 1 20 110.96235951145329 6.172491259400066 0
68 1 20 118.10684938492777 6.221199700756815 0
69 1 10 125.07873727784964 6.189448142024576 0
70 1 9 131.76848463683697 6.021568435872094 0
71 1 16 138.62466076507476 6.174748379909093 0
72 1 17 145.6966425399174 6.2450997253445 0
73 1 18 152.77809978305197 6.102658671846596 0
74 1 19 159.58661523710532 6.389077801624538 0
75 1 14 166.48791643528187 6.259722299718101 0
76 1 3 -3.0715217324897517 8.205414707101701 0
77 1 9 3.5020354342416757 8.346203633914472 0
78 1 10 10.706139651704905 8.359797012216218 0
79 1 11 17.502268163409283 8.10811856984737 0
80 1 12 24.44000998515111 8.0947170047356 0
81 1 13 31.512736494995163 8.173885538511538 0
82 1 19 38.19300954632873 8.358633587671287 0
83 1 19 45.33026043444124 8.34043870059172 0
84 1 13 52.297380536087374 8.089147608584303 0
85 1 12 58.91425490736837 8.034973923915361 0
86 1 11 65.85367774671657 8.331122452264442 0
87 1 10 72.85039826345249 8.022050088759379 0
88 1 9 79.89177189380312 8.173902722684021 0
89 1 16 86.74739061807132 8.068461139821196 0
90 1 11 93.82638307616898 8.07422201517919 0
91 1 11 100.49676069213982 8.144252643411997 0
92 1 11 107.68339668777821 8.294171344890147 0
93 1 11 114.61060539336385 8.248229899517852 0
94 1 16 121.5934763778798 8.213186050889782 0
95 1 9 128.2710798003156 8.218650172268605 0
96 1 10 135.39823456590028 8.025384061243459 0
97 1 11 142.39207773224558 8.042829918501265 0
98 1 12 148.98096668892816 8.196155636990833 0
99 1 13 156.27730680450642 8.289520822168251 0
100 1 19 162.90190381864502 8.140473035133699 0
101 1 21 -3.3963069897064684 12.34932573632564 0
102 1 10 3.7130416247295943 12.050914390531599 0
103 1 9 10.61632848841519 12.220314951027703 0
104 1 16 17.377695286386526 12.082854551751742 0
105 1 17 24.33955406097483 12.238445350569293 0
106 1 18 31.37293307522592 12.140080025567979 0
107 1 13 38.161016522778645 12.079863696861311 0
108 1 13 45.177771330590296 12.135258422771136 0
109 1 18 52.22876553446167 12.318399247126576 0
110 1 17 59.2480798863311 12.276871605535057 0
111 1 16 66.19197119953232 12.163453894171544 0
112 1 9 72.74957096123171 12.151108263847249 0
113 1 10 79.82517704992958 12.311326543831033 0
114 1 11 86.82570620748405 12.195961896283896 0
115 1 17 93.64036556867822 12.373668949676407 0
116 1 17 100.690427910365 12.106529139048702 0
117 1 17 107.53121819009053 12.100863297402713 0
118 1 17 114.46338322086598 12.266880860722567 0
119 1 11 121.53464101865364 12.154804369006918 0
120 1 10 128.38128221969436 12.083760495235648 0
121 1 9 135.39669540492133 12.157874731312548 0
122 1 16 142.22821551365504 12.163146470394851 0
123 1 17 148.9671146793851 12.216902527780903 0
124 1 18 156.18760692214636 12.220861748965454 0
125 1 13 162.8483132883218 12.370704408061624 0
126 1 16 0.19503791183678107 14.113573619749348 0
127 1 9 7.284959923998501 14.264881793837642 0
128 1 10 14.152704060019893 14.190305130306697 0
129 1 11 21.05887598278876 14.112520064830917 0
130 1 12 27.881404036967194 14.353398581330545 0
131 1 18 34.680464380718135 14.2265840449729 0
132 1 18 41.798856862566254 14.334668244827558 0
133 1 18 48.66790187473371 14.042214519643945 0
134 1 12 55.51455431488858 14.251710241806496 0
135 1 11 62.74671106852506 14.05712932396205 0
136 1 10 69.51532128459212 14.236882245963937 0
137 1 9 76.438495903942 14.335060533773241 0
138 1 16 83.25332149610239 14.067932758581632 0
139 1 17 90.16043030934517 14.2898381540573 0
140 1 9 97.05819205722841 14.099564232729296 0
141 1 9 104.1746333279781 14.290483526452675 0
142 1 9 110.90625900068926 14.22428185761113 0
143 1 17 118.00962843298177 14.091746649976205 0
144 1 16 124.95905610903141 14.284675599141728 0
145 1 9 131.65541296175508 14.278972119395931 0
146 1 10 138.70848167684596 14.052065143205814 0
147 1 11 145.50139929413444 14.080100440431385 0
148 1 12 152.60524733189112 14.268837049252278 0
149 1 18 159.72157403760158 14.20278892816549 0
150 1 18 166.3668987984235 14.215033291817553 0
151 1 11 0.20095595144621134 18.231431696581247 0
152 1 10 7.076477582790741 18.067180813847376 0
153 1 9 14.111451360159831 18.178581703812256 0
154 1 16 21.008481557047357 18.080160149930805 0
155 1 17 27.979275435379332 18.245722365974594 0
156 1 9 34.93208466041354 18.163131313367042 0
157 1 9 41.83628062243889 18.391434873417055 0
158 1 9 48.85896117987503 18.07069955391184 0
159 1 17 55.52622463299769 18.187633394387493 0
160 1 16 62.404919016320214 18.236823631489894 0
161 1 9 69.6387869095372 18.316606093206317 0
162 1 10 76.44203081136224 18.208475543436926 0
163 1 11 83.42481198207801 18.174792726153946 0
164 1 12 90.16082288034727 18.35165549060709 0
165 1 18 97.17440918177262 18.27058792463276 0
166 1 18 104.01258480204592 18.113468865760993 0
167 1 18 111.1038686026437 18.079826967578562 0
168 1 12 118.02822620456644 18.064168210611655 0
169 1 11 124.82024508351452 18.14101536897719 0
170 1 10 132.00993045391914 18.36614975531037 0
171 1 9 138.74433206053058 18.33123405456876 0
172 1 16 145.67782402067326 18.164801439266185 0
173 1 17 152.7915279921643 18.066045600483143 0
174 1 9 159.67851983060183 18.069879024145987 0
175 1 9 166.6477680508895 18.26092871084331 0
176 1 4 -3.2641627457077016 20.123993997708354 0
177 1 16 3.4798273125924166 20.090272283068778 0
178 1 9 10.764902138360938 20.121164829605082 0
179 1 10 17.50775187635315 20.04112256223108 0
180 1 11 24.31294529445744 20.295671235164498 0
181 1 17 31.33515094582688 20.05083967829808 0
182 1 17 38.434778155603965 20.271869406549634 0
183 1 17 45.270012093485605 20.02108166314139 0
184 1 17 52.30124580014192 20.1101792740537 0
185 1 11 59.245813938843796 20.066946594585772 0
186 1 10 65.95147672068934 20.26112258313318 0
187 1 9 72.75096095662988 20.101758673695915 0
188 1 16 79.939710199947 20.30200016279639 0
189 1 17 86.61560594673773 20.223243906955343 0
190 1 18 93.90295420652072 20.363559734700935 0
191 1 13 100.84990931197208 20.14590230860213 0
192 1 13 107.69972854551007 20.184064952255323 0
193 1 18 114.56724952782368 20.30361363563697 0
194 1 17 121.38526976235957 20.123046463561995 0
195 1 16 128.34694702930784 20.232631842232433 0
196 1 9 135.30411728280112 20.332616365044988 0
197 1 10 142.38045023446588 20.032828392096903 0
198 1 11 149.07481040068342 20.384099455166538 0
199 1 17 155.89965341976423 20.100395226783125 0
200 1 17 163.17994299126732 20.34871194726848 0
201 1 22 -3.305237671809964 24.000408983593022 0
202 1 11 3.7716017988032333 24.033802638797322 0
203 1 10 10.634745833715849 24.024926591089915 0
204 1 9 17.561042185821023 24.20768796160511 0
205 1 16 24.387947521114604 24.297065302053532 0
206 1 11 31.41053998540499 24.25135655429971 0
207 1 11 38.114416040977005 24.307512419739307 0
208 1 11 45.325312531443466 24.08557786858449 0
209 1 11 52.3506399898134 24.045722455463498 0
210 1 16 59.13982419725541 24.195881895939387 0
211 1 9 66.15943138311488 24.14105712027381 0
212 1 10 72.97916321679139 24.098714442822686 0
213 1 11 79.72826387854639 24.120666675861266 0
214 1 12 86.70033712927012 24.346747962883633 0
215 1 13 93.55162975183191 24.108513089734576 0
216 1 19 100.63931302275788 24.370703540653356 0
217 1 19 107.66783047481756 24.070709879322333 0
218 1 13 114.61941827131992 24.338161121274705 0
219 1 12 121.36144989279815 24.25872417770497 0
220 1 11 128.53420186217704 24.03978982382021 0
221 1 10 135.1029778293823 24.108317827117855 0
222 1 9 142.27512514448438 24.02264723107528 0
223 1 16 149.11777128484846 24.23205990130344 0
224 1 11 155.99905176124997 24.035489891020074 0
225 1 11 163.1689916013254 24.01954729766055 0
226 1 17 0.37281709218117226 26.270900849059394 0
227 1 16 6.980852139639559 26.33976691975379 0
228 1 9 14.007951008281617 26.043294480466365 0
229 1 10 20.926306155033604 26.127326093979917 0
230 1 20 28.05167760673712 26.24463105310972 0
231 1 20 34.91849096190447 26.07708912469195 0
232 1 20 41.61876896192916 26.201933369512847 0
233 1 20 48.523997886834266 26.286919926837264 0
234 1 20 55.67099358697902 26.001516649574658 0
235 1 10 62.51385521045656 26.35652711233767 0
236 1 9 69.46208919101063 26.002994686915418 0
237 1 16 76.36087251787895 26.18838441786745 0
238 1 17 83.5262564856487 26.379465797820647 0
239 1 18 90.45570237840796 26.26354378397475 0
240 1 19 97.02133793395889 26.34225603237856 0
241 1 14 104.05394333331336 26.110428710295704 0
242 1 19 111.10567276745864 26.331148131964685 0
243 1 18 118.0843995089083 26.202163226262073 0
244 1 17 124.91748572927973 26.066797549933575 0
245 1 16 131.66845376429174 26.383990858062486 0
246 1 9 138.71606483987787 26.002155885540102 0
247 1 10 145.6155469583285 26.016771391534224 0
248 1 20 152.4421422971413 26.22310206519176 0
249 1 20 159.60352884727695 26.039518941677084 0
250 1 20 166.28811304469485 26.287951598768576 0
251 1 12 0.2929207527133249 30.074159022688402 0
252 1 11 6.963890230882374 30.102186769784087 0
253 1 10 13.91686561191895 30.236549865141413 0
254 1 9 21.18447470577143 30.237696627662302 0
255 1 10 27.806781348469592 30.178617797374173 0
256 1 10 35.02952628219128 30.39011595108379 0
257 1 10 41.71933748060277 30.34400845492303 0
258 1 10 48.71532552734633 30.3734189263944 0
259 1 10 55.56689483130463 30.383026709043786 0
260 1 9 62.49318197282487 30.045137026021877 0
261 1 10 69.47653510117401 30.33843435166535 0
262 1 11 76.29699947615349 30.011244622347974 0
263 1 12 83.43643508674879 30.267433920565427 0
264 1 13 90.29971243773278 30.38333211954432 0
265 1 14 97.0791287386762 30.152603098492953 0
266 1 15 104.19315104471677 30.14534576752754 0
267 1 14 111.0421909512369 30.154923660864014 0
268 1 13 118.15420865488386 30.26132963279759 0
269 1 12 124.78344635831822 30.265783353387846 0
270 1 11 131.6962087923359 30.18463052518296 0
271 1 10 138.68767498693052 30.374098410532152 0
272 1 9 145.83822128781222 30.214055161576614 0
273 1 10 152.74469539522948 30.298201358564455 0
274 1 10 159.71202683662884 30.018006400996462 0
275 1 10 166.34969319302894 30.12319149058097 0
276 1 5 -3.0712075077705063 32.168958930884045 0
277 1 17 3.5418543470473973 32.30880484963776 0
278 1 16 10.485967909832215 32.041345384029626 0
279 1 9 17.71582364110456 32.37311292554115 0
280 1 9 24.52696172244851 32.2292662363013 0
281 1 9 31.492303724949494 32.20382981286442 0
282 1 9 38.37187192717368 32.09235449920248 0
283 1 9 45.30957867293314 32.1512050353683 0
284 1 9 52.212427861715234 32.02702718889994 0
285 1 9 59.128709176342454 32.241459346420406 0
286 1 9 66.21769798083926 32.28053861858755 0
287 1 16 72.98611340776469 32.21178293360269 0
288 1 17 80.01623958818547 32.06782003008763 0
289 1 18 86.63000884218489 32.064304770409755 0
290 1 19 93.5890019050071 32.02529683559648 0
291 1 15 100.52987254863659 32.03740708735122 0
292 1 15 107.6438073107058 32.37872722823206 0
293 1 19 114.33528881401962 32.146559977149025 0
294 1 18 121.24667824251952 32.28721927010123 0
295 1 17 128.48567996464286 32.39154744718742 0
296 1 16 135.3120807030546 32.136499413679445 0
297 1 9 142.3784319942469 32.20476251460262 0
298 1 9 149.28874863422578 32.17269186089291 0
299 1 9 156.19554998260583 32.11980600263546 0
300 1 9 162.8754674090502 32.1677855592096 0
301 1 5 -3.1609669421385944 36.39376353081021 0
302 1 17 3.797204171594058 36.05859994848512 0
303 1 16 10.664359578583626 36.1288966989903 0
304 1 9 17.417662578711404 36.297273058063276 0
305 1 9 24.35779120529794 36.28791654842946 0
306 1 9 31.380689271977275 36.38713266778622 0
307 1 9 38.15368646059555 36.02234249885968 0
308 1 9 45.41054085311879 36.02704745910611 0
309 1 9 52.066054848486125 36.03928335077869 0
310 1 9 59.027139075252784 36.309581856032146 0
311 1 9 66.21756495969075 36.03913037426072 0
312 1 16 72.8299634811756 36.126669884503166 0
313 1 17 79.68871443088948 36.35555879658532 0
314 1 18 86.61677614274004 36.09849233830375 0
315 1 19 93.72897103502922 36.3403310922788 0
316 1 15 100.57016436622249 36.081452053750745 0
317 1 15 107.46306390258606 36.36908817542047 0
318 1 19 114.70052707324159 36.30900238860166 0
319 1 18 121.6391743624911 36.24488790603329 0
320 1 17 128.54291820999194 36.111816442020384 0
321 1 16 135.13185961533125 36.245599089467554 0
322 1 9 142.12821368633587 36.032099351986865 0
323 1 9 149.0008474956509 36.120566171403084 0
324 1 9 156.04461628374452 36.25588353393735 0
325 1 9 163.08857327287083 36.00049576217854 0
326 1 12 0.3741688142343882 38.06871440166887 0
327 1 11 7.09297526211443 38.36475204454731 0
328 1 10 13.951136784425286 38.20934713874616 0
329 1 9 20.91916235298266 38.23891764962001 0
330 1 10 27.914953398099012 38.30962744037618 0
331 1 10 34.896507642687034 38.30809348755206 0
332 1 10 41.761861909175806 38.185586998117415 0
333 1 10 48.577699916744244 38.39753901206789 0
334 1 10 55.448820841893806 38.15615949415493 0
335 1 9 62.666456469856705 38.21018785280399 0
336 1 10 69.30997879567752 38.051189766533795 0
337 1 11 76.45109206236165 38.141015518536534 0
338 1 12 83.26222956851693 38.354889457701695 0
339 1 13 90.45379548631973 38.011222775222606 0
340 1 14 97.18882718212458 38.19399102351095 0
341 1 15 104.20413069994224 38.20631367800177 0
342 1 14 111.14316382727867 38.29390741361252 0
343 1 13 118.07291628299103 38.393735277350956 0
344 1 12 124.91397760129028 38.377079782801864 0
345 1 11 131.80616958771495 38.28133797801793 0
346 1 10 138.6543211334877 38.234039670953976 0
347 1 9 145.5866432793836 38.14634738015862 0
348 1 10 152.69832630188236 38.30270369762486 0
349 1 10 159.71024176611033 38.03778883475426 0
350 1 10 166.3174347375069 38.25916510938177 0
351 1 17 0.29016203304436367 42.001122832597694 0
352 1 16 7.115835173731216 42.28964321988856 0
353 1 9 14.007962397247951 42.25207631096687 0
354 1 10 20.876742600141068 42.29419545442185 0
355 1 20 28.008472508440907 42.10218760864438 0
356 1 20 34.733039961442564 42.32399717316564 0
357 1 20 41.88268422082572 42.10242936662346 0
358 1 20 48.720918104392865 42.35276338975777 0
359 1 20 55.81719831968695 42.22224523692199 0
360 1 10 62.45084900034865 42.02927266618169 0
361 1 9 69.65039569518542 42.28561738443427 0
362 1 16 76.42333612378282 42.00816365600094 0
363 1 17 83.23228033130123 42.210591172578894 0
364 1 18 90.41956546329213 42.23367377128858 0
365 1 19 97.22638800315762 42.381792617144605 0
366 1 14 104.10056354187725 42.39972481634694 0
367 1 19 111.19928788348113 42.07492404697359 0
368 1 18 118.06346031298389 42.23038111468082 0
369 1 17 124.81248538422632 42.25649092081652 0
370 1 16 131.6922800861694 42.330182403878496 0
371 1 9 138.6079682816774 42.3007768419022 0
372 1 10 145.73586283176033 42.005175394285565 0
373 1 20 152.62237358578696 42.29667243145457 0
374 1 20 159.5409078414399 42.21047410415101 0
375 1 20 166.47667247611025 42.032032789373424 0
376 1 22 -3.0950672291468573 44.27813992224897 0
377 1 11 3.7513800197602976 44.379923304352964 0
378 1 10 10.45541955813107 44.25947358804319 0
379 1 9 17.582125883215383 44.05925775314213 0
380 1 16 24.525033097852784 44.116962209706536 0
381 1 11 31.28492161310974 44.09080365669794 0
382 1 11 38.306367283405386 44.140210228738674 0
383 1 11 45.35306951550868 44.30987345721708 0
384 1 11 51.96287891519224 44.01796241740165 0
385 1 16 59.154109620993204 44.185622196381495 0
386 1 9 66.03237477105017 44.14605117360475 0
387 1 10 72.95256468101361 44.01243516598874 0
388 1 11 79.75506888300116 44.19142388468347 0
389 1 12 86.62993137578233 44.31716330867351 0
390 1 13 93.57651165400567 44.11223310638075 0
391 1 19 100.52422485456081 44.10325014884942 0
392 1 19 107.5506791482615 44.22774469605596 0
393 1 13 114.58634053027438 44.267293728446006 0
394 1 12 121.60556953349685 44.27261226594353 0
395 1 11 128.24191865747315 44.13580818789348 0
396 1 10 135.38276419804987 44.05725840670113 0
397 1 9 142.2436809951759 44.32710291129616 0
398 1 16 149.26449466333213 44.19630782569457 0
399 1 11 155.92556746033048 44.10022336869128 0
400 1 11 163.14202453015287 44.347834339395895 0
401 1 4 -3.287786004253846 48.191600018778715 0
402 1 16 3.5100018690364485 48.15926096487706 0
403 1 9 10.569206791360921 48.17528129885199 0
404 1 10 17.587238067819207 48.17354132686772 0
405 1 11 24.494655904434953 48.19717720048295 0
406 1 17 31.479656448800327 48.09300924671205 0
407 1 17 38.373319038433145 48.10509286403338 0
408 1 17 45.34709008725646 48.12556602493351 0
409 1 17 52.04465456512708 48.22998349500303 0
410 1 11 59.228890806492686 48.12292154608661 0
411 1 10 66.21216589138676 48.21060302017027 0
412 1 9 73.1053665537516 48.33751584855985 0
413 1 16 79.99143365469604 48.235050651396776 0
414 1 17 86.90108976173043 48.01625770642556 0
415 1 18 93.57300141664659 48.396455020108 0
416 1 13 100.59594561373757 48.09183417501526 0
417 1 13 107.53873468856177 48.130124496502035 0
418 1 18 114.49126444030287 48.29046923018755 0
419 1 17 121.62358166392123 48.30203673537467 0
420 1 16 128.4477094062424 48.326034541658274 0
421 1 9 135.28573629201824 48.21681852378582 0
422 1 10 142.2553365641412 48.22984370787597 0
423 1 11 149.2773332047482 48.207876765290905 0
424 1 17 155.9710984872592 48.24515156092205 0
425 1 17 162.89324137154716 48.008253022540316 0
426 1 11 0.03425377517752306 50.185768015063374 0
427 1 10 6.937373708096335 50.3127127497993 0
428 1 9 13.892585122369915 50.28693000229566 0
429 1 16 20.839517939614698 50.377003855355035 0
430 1 17 28.05657784827396 50.329035351864725 0
431 1 9 34.882360961523275 50.13512213597795 0
432 1 9 41.656789182034444 50.34638296188347 0
433 1 9 48.6845010678776 50.336823509345685 0
434 1 17 55.52228961819287 50.133539759868775 0
435 1 16 62.66819145035189 50.31956508306433 0
436 1 9 69.5529088807483 50.314760936007254 0
437 1 10 76.37262445044418 50.32899122028491 0
438 1 11 83.3846962129674 50.279639010603056 0
439 1 12 90.08048813471592 50.02658082896703 0
440 1 18 97.20448524220447 50.07218400446111 0
441 1 18 104.29564380900639 50.364706396089304 0
442 1 18 111.19360524886274 50.02223526471816 0
443 1 12 118.00764927681978 50.01999548947782 0
444 1 11 125.05044623058423 50.061501945173 0
445 1 10 131.65844725428673 50.26373504528259 0
446 1 9 138.82308831306062 50.284336174041684 0
447 1 16 145.8915126032449 50.312783700700535 0
448 1 17 152.52465773088585 50.09246304422574 0
449 1 9 159.58147438262833 50.08019058175222 0
450 1 9 166.3105821801492 50.39679830432286 0
451 1 16 0.21781766602200522 54.0934196324998 0
452 1 9 7.075586174328583 54.069301677818046 0
453 1 10 14.01381398239622 54.288764131588636 0
454 1 11 21.17146585733673 54.02652535037973 0
455 1 12 27.725804492114403 54.30018270161371 0
456 1 18 34.831515474025494 54.278398643184545 0
457 1 18 41.7607485349461 54.25912642003791 0
458 1 18 48.706167067748225 54.018115394897535 0
459 1 12 55.56281861631382 54.08176255795398 0
460 1 11 62.623883652045784 54.38076308058366 0
461 1 10 69.51872150413948 54.04499078523405 0
462 1 9 76.26454848139271 54.105000448112314 0
463 1 16 83.3877959979553 54.20404052245502 0
464 1 17 90.1253401074921 54.07173859821304 0
465 1 9 97.19443316812352 54.03119479774939 0
466 1 9 104.02830986978915 54.145731135560396 0
467 1 9 110.90020415133651 54.28625499056525 0
468 1 17 118.0194041816215 54.152489979084436 0
469 1 16 124.80415700245436 54.292310502206675 0
470 1 9 131.79574102410263 54.34026689700511 0
471 1 10 138.58225074635777 54.09735927920871 0
472 1 11 145.61238580231483 54.356257779174655 0
473 1 12 152.626083153224 54.00642326701269 0
474 1 18 159.43137428665312 54.37363978737483 0
475 1 18 166.42814605596107 54.18242710506295 0
476 1 21 -3.266638535340607 56.05740828956787 0
477 1 10 3.6040023496838085 56.35456555476051 0
478 1 9 10.599267318254963 56.30033249856656 0
479 1 16 17.363923500169392 56.352990854591624 0
480 1 17 24.610712492329554 56.11541316483623 0
481 1 18 31.343186320981335 56.02495332760136 0
482 1 13 38.35031043488439 56.27180701946451 0
483 1 13 45.26028065704957 56.3890566858905 0
484 1 18 52.195207357282015 56.00099810477141 0
485 1 17 58.97875077960924 56.1580232112594 0
486 1 16 65.8926942694115 56.05149170374747 0
487 1 9 72.97187167444785 56.01407626509442 0
488 1 10 80.01384484457456 56.3911049363485 0
489 1 11 86.8507146706708 56.301752864081045 0
490 1 17 93.84559264344026 56.279467441403625 0
491 1 17 100.82522521694453 56.270743056687415 0
492 1 17 107.4632614283877 56.22962627942654 0
493 1 17 114.6482353673422 56.31451464994356 0
494 1 11 121.39807111154045 56.06524070431206 0
495 1 10 128.41989323796068 56.36279378632639 0
496 1 9 135.32360127677015 56.03411668711499 0
497 1 16 142.35825120507172 56.23029866144535 0
498 1 17 149.13858607406328 56.346472113764364 0
499 1 18 156.13827469707002 56.34508791636936 0
500 1 13 163.00992480409764 56.31474560782497 0
501 1 3 -3.090191025593094 60.09816823333319 0
502 1 9 3.640967727048948 60.15208962679895 0
503 1 10 10.695404348061048 60.022105664480726 0
504 1 11 17.350436614579426 60.06063061334276 0
505 1 12 24.592436558624556 60.15492487926838 0
506 1 13 31.31383729230931 60.0488147403423 0
507 1 19 38.17652390504849 60.17890095770515 0
508 1 19 45.3808174785178 60.24260867235367 0
509 1 13 52.16494390869 60.29192475952002 0
510 1 12 58.950303144097866 60.20504666806804 0
511 1 11 65.8966221207974 60.34889036293952 0
512 1 10 72.99908373724026 60.03911954226157 0
513 1 9 79.7467693214487 60.05379577253506 0
514 1 16 86.62052141914744 60.306696286879955 0
515 1 11 93.57090519246485 60.23164014899382 0
516 1 11 100.84032132119512 60.006175175876294 0
517 1 11 107.48282054138899 60.18320703020123 0
518 1 11 114.53193403165632 60.36633777274735 0
519 1 16 121.32953179909994 60.137617708431 0
520 1 9 128.39115526319665 60.35562343459042 0
521 1 10 135.299833219557 60.24987820458549 0
522 1 11 142.07475094111717 60.01913133747167 0
523 1 12 149.06495421818633 60.35732401844452 0
524 1 13 156.12141675566173 60.31846296823755 0
525 1 19 162.9311386532004 60.179803650854225 0
526 1 10 0.12762686157476774 62.19033988729788 0
527 1 9 7.174567647097416 62.026672417378116 0
528 1 16 14.007429664824887 62.39050715922673 0
529 1 17 20.985321188455135 62.32641802446672 0
530 1 18 28.072868930149394 62.295213734124964 0
531 1 19 34.87477211940133 62.0550267267797 0
532 1 14 41.90031384582474 62.32516739455521 0
533 1 19 48.616433354060455 62.34893615213399 0
534 1 18 55.666156612117355 62.28700069206403 0
535 1 17 62.668288147258224 62.24266635124851 0
536 1 16 69.53226126032268 62.30500801604653 0