
14309 atoms
14896 bonds
16659 angles
26 atom types
8 bond types
20 angle types

-5.680607966083864 171.52447279080386 xlo xhi
-2.0 148.0 ylo yhi
-4 4 zlo zhi


Masses

1 0.0002624622732247687
2 0.0006947530761832111
3 0.00020070644423070546
4 0.00041685184570992666
5 0.0009263374349109482
6 0.0008491426486683692
7 0.0005249245464495374
8 0.0009572153494079798
9 0.0006175582899406322
10 0.00033965705946734765
11 0.0010498490928990748
12 0.0013895061523664222
13 0.0012351165798812642
14 0.00030877914497031604
15 0.0007101920334317269
16 0.00021614540147922123
17 0.000710192033431727
18 0.0005866803754436005
19 0.0005249245464495374
20 0.0008645816059168849
21 0.00018526748698218965
22 0.00021614540147922123
23 0.00024702331597625284
24 0.0005866803754436005
25 0.0009263374349109482
26 0.0007719478624257902

Pair Coeffs

1 0.40509979849834776 0.44544935907016964 0.5
2 0.40509979849834776 0.44544935907016964 0.5
3 0.40509979849834776 0.44544935907016964 0.5
4 0.40509979849834776 0.44544935907016964 0.5
5 0.40509979849834776 0.44544935907016964 0.5
6 0.40509979849834776 0.44544935907016964 0.5
7 0.40509979849834776 0.44544935907016964 0.5
8 0.40509979849834776 0.44544935907016964 0.5
9 0.40509979849834776 0.44544935907016964 0.5
10 0.40509979849834776 0.44544935907016964 0.5
11 0.40509979849834776 0.44544935907016964 0.5
12 0.40509979849834776 0.44544935907016964 0.5
13 0.40509979849834776 0.44544935907016964 0.5
14 0.40509979849834776 0.44544935907016964 0.5
15 0.40509979849834776 0.44544935907016964 0.5
16 0.40509979849834776 0.44544935907016964 0.5
17 0.40509979849834776 0.44544935907016964 0.5
18 0.40509979849834776 0.44544935907016964 0.5
19 0.40509979849834776 0.44544935907016964 0.5
20 0.40509979849834776 0.44544935907016964 0.5
21 0.40509979849834776 0.44544935907016964 0.5
22 0.40509979849834776 0.44544935907016964 0.5
23 0.40509979849834776 0.44544935907016964 0.5
24 0.40509979849834776 0.44544935907016964 0.5
25 0.40509979849834776 0.44544935907016964 0.5
26 0.40509979849834776 0.44544935907016964 0.5

Bond Coeffs

1 104.98490928990746 0.5
2 172.916321183377 0.5
3 37.053497396437926 0.5
4 43.22908029584425 0.5
5 49.40466319525057 0.5
6 117.33607508872011 0.5
7 185.26748698218964 0.5
8 154.38957248515803 0.5

Angle Coeffs

1 9.642716220792126 180
2 43.08506136349047 180
3 0.4239419303258903 180
4 0.6732040838045386 180
5 1.0048993904021102 180
6 13.462118981968894 180
7 52.99274129073629 180
8 30.667095654361276 180
9 15.75856366862675 120
10 0.520257896607443 120
11 1.8701953381544094 120
12 52.99274129073629 120
13 38.85098335097969 120
14 9.642716220792126 120
15 0.812176527077832 120
16 0.806270154170582 120
17 0.6732040838045386 120
18 21.470050061322553 120
19 13.462118981968894 120
20 30.667095654361276 120

Atoms

1 1 1 -3.3258296443512814 0.11940647225488021 0
2 1 2 3.5392328874181964 0.0931146081223404 0
3 1 3 10.651782275140972 0.11274921892969277 0
4 1 4 17.45566356474447 0.2663367489359229 0
5 1 5 24.2794118826862 0.10271368473209704 0
6 1 6 31.3781177600091 0.1721100884611798 0
7 1 6 38.14991608989294 0.17762012727900964 0
8 1 5 45.386150484487864 0.07408716018980628 0
9 1 4 52.156057664594776 0.31258189682699433 0
10 1 3 58.94275294244886 0.16846709232277296 0
11 1 2 66.02225767875926 0.281940194791499 0
12 1 7 72.95908675536434 0.08264652614780195 0
13 1 7 79.96823133460728 0.1844642820354927 0
14 1 7 86.63670986061504 0.03227242571819855 0
15 1 7 93.84112298972535 0.08878456274416663 0
16 1 7 100.69261802246184 0.32869101093085623 0
17 1 2 107.52898041536827 0.05746821578925765 0
18 1 3 114.35535929702392 0.014622008863842951 0
19 1 4 121.35313561780868 0.2239759986899136 0
20 1 5 128.38072838334747 0.17013025855386169 0
21 1 6 135.15935029397514 0.02203331123631709 0
22 1 6 142.17999013886055 0.02116980386961669 0
23 1 5 149.05873192194247 0.1442092151262154 0
24 1 4 156.03258781382664 0.38693296014314965 0
25 1 3 162.93097971666086 0.10983157220818503 0
26 1 8 0.23294630747422881 2.2220566887215347 0
27 1 9 7.083603734800074 2.0280211682081575 0
28 1 10 14.091511955544917 2.3629138258265283 0
29 1 11 21.068613530666667 2.0447497379699917 0
30 1 12 27.840629437139896 2.345083210179226 0
31 1 13 34.92252455400046 2.3699633340165494 0
32 1 12 41.889143497219095 2.2785965946323574 0
33 1 11 48.81032938276351 2.3460313071345453 0
34 1 10 55.718442464795395 2.0550585258978438 0
35 1 9 62.71874216843172 2.141583568693221 0
36 1 8 69.4648819597841 2.024637075008484 0
37 1 9 76.42499350431379 2.180392855260579 0
38 1 9 83.49347420038276 2.0872140181415944 0
39 1 9 90.18823683098479 2.3362383551483688 0
40 1 9 97.07191689005461 2.165576693334017 0
41 1 8 104.24540885454378 2.1375886489557914 0
42 1 9 111.19814948159977 2.2301639516738674 0
43 1 10 117.82113428645448 2.2306430134287414 0
44 1 11 124.95040119674482 2.3510592272098427 0
45 1 12 131.86700857602392 2.3850746621092047 0
46 1 13 138.9084532950087 2.365144369027039 0
47 1 12 145.6184369998862 2.38083462176359 0
48 1 11 152.64478392323292 2.0300907480413906 0
49 1 10 159.39766718453177 2.0221613256700666 0
50 1 9 166.56509256848193 2.149791028147546 0
51 1 9 0.3676342047207666 6.242808182903627 0
52 1 8 7.050336961759971 6.206930566609274 0
53 1 14 14.157480042404883 6.260883941969453 0
54 1 15 20.864387033133223 6.10332328341512 0
55 1 12 27.9704272577562 6.120555205193701 0
56 1 12 35.03453460349428 6.128676864593345 0
57 1 12 41.73092648622322 6.310206487097603 0
58 1 15 48.57393021824451 6.172102810094993 0
59 1 14 55.79170780460161 6.2232821869259265 0
60 1 8 62.619355878039975 6.048678369603697 0
61 1 9 69.3372724425965 6.2831000686315726 0
62 1 14 76.3066029462398 6.169162127314012 0
63 1 14 83.34317648802676 6.011499013977019 0
64 1 14 90.41946950837547 6.201724467344844 0
65 1 14 97.0831980920778 6.335984628799957 0
66 1 9 104.13386402410957 6.058621662944621 0
67 1 8 111.06706274094537 6.01391967305276 0
68 1 14 117.90924827510547 6.262381229528692 0
69 1 15 124.99458693658163 6.195975813926569 0
70 1 12 131.69838769893914 6.1214322728226875 0
71 1 12 138.80328678076438 6.033396981188235 0
72 1 12 145.76759937230153 6.314823976941299 0
73 1 15 152.68887849499654 6.053000483984431 0
74 1 14 159.3871975327829 6.088563289688877 0
75 1 8 166.53653393670047 6.3753090046863345 0
76 1 3 -3.167621740678502 8.251748564818426 0
77 1 8 3.8487349882432658 8.324963821568813 0
78 1 9 10.57577542794698 8.243978583866708 0
79 1 10 17.62533719938391 8.226249432600918 0
80 1 11 24.420318448088267 8.203941979756603 0
81 1 12 31.40096600540262 8.050740846967894 0
82 1 12 38.44632051711594 8.213141207126728 0
83 1 11 45.2043560096687 8.368390846070517 0
84 1 10 52.05523056781871 8.331879572983445 0
85 1 9 59.13228437890138 8.129541269436187 0
86 1 8 66.11002107673455 8.223980809008195 0
87 1 14 72.96723072920011 8.111890939868976 0
88 1 10 79.84419187352704 8.202991130739553 0
89 1 10 86.92285317654746 8.284748508877005 0
90 1 10 93.86307826904259 8.175350492663897 0
91 1 14 100.49808542368199 8.202849120771136 0
92 1 8 107.4580260418834 8.085456314016184 0
93 1 9 114.32426682429907 8.112599649477957 0
94 1 10 121.35680353939337 8.197066112596724 0
95 1 11 128.34632851138866 8.119363512909484 0
96 1 12 135.41351572174455 8.163363593379062 0
97 1 12 142.41360866495307 8.114290623618398 0
98 1 11 148.959376189542 8.031059619472309 0
99 1 10 156.0579543543406 8.38261977434564 0
100 1 9 163.04669529904388 8.043718350203802 0
101 1 16 -3.2475159777999214 12.175945128121787 0
102 1 9 3.683713014994361 12.0219640493399 0
103 1 8 10.7261214297681 12.119967653757904 0
104 1 14 17.33617170904916 12.355848710707713 0
105 1 15 24.590545543913084 12.295938875013906 0
106 1 11 31.494004744325014 12.164268879183124 0
107 1 11 38.309631867420016 12.18234126231071 0
108 1 15 45.108832504041025 12.206711060183965 0
109 1 14 52.32712437505214 12.318310662246382 0
110 1 8 59.05928849989815 12.0677922929943 0
111 1 9 66.1346405328889 12.063013988154788 0
112 1 10 73.12741260818594 12.215722041878767 0
113 1 17 79.73987378422221 12.07927984854657 0
114 1 17 86.87171916467699 12.390271895956678 0
115 1 17 93.75491835888681 12.073803798284876 0
116 1 10 100.4720335597527 12.19784085542235 0
117 1 9 107.6174441068811 12.317191960186854 0
118 1 8 114.57853357541015 12.360034568884972 0
119 1 14 121.29630385611085 12.080646604135511 0
120 1 15 128.30898808495382 12.137121647610023 0
121 1 11 135.3619318669135 12.3140860782635 0
122 1 11 142.26747277010327 12.15900904935169 0
123 1 15 148.96574044040048 12.101094072958857 0
124 1 14 156.28236397189804 12.132853533415801 0
125 1 8 162.8307412629988 12.098787063836507 0
126 1 14 0.3257689762120468 14.388333311597645 0
127 1 8 7.25522643803646 14.180853157720966 0
128 1 9 13.886024780242737 14.066905133184381 0
129 1 10 20.92205358642181 14.015788394136028 0
130 1 17 27.96085749352606 14.08134797623936 0
131 1 17 34.677267811953826 14.2876982617172 0
132 1 17 41.881224613312845 14.284314602795137 0
133 1 10 48.67903593381604 14.107698744710452 0
134 1 9 55.45413675346103 14.214523731619542 0
135 1 8 62.42356593429043 14.178125325130873 0
136 1 14 69.6591769253625 14.123464543595166 0
137 1 15 76.55481787876404 14.378780457024709 0
138 1 11 83.33134859462297 14.178052311364661 0
139 1 11 90.26106002795225 14.208265982420462 0
140 1 15 97.09764388888557 14.325410264872325 0
141 1 14 104.074071744647 14.155373285517316 0
142 1 8 111.00684956752596 14.017036721712214 0
143 1 9 117.88458292059568 14.13115143251667 0
144 1 10 124.77337194170181 14.02090702747963 0
145 1 17 131.79285706238173 14.218721579676117 0
146 1 17 138.76405648645175 14.396481207443031 0
147 1 17 145.715578731478 14.217408646056505 0
148 1 10 152.72557836089473 14.019523679188026 0
149 1 9 159.6189748708198 14.36535808381997 0
150 1 8 166.28089267644665 14.107045013117439 0
151 1 10 0.2795248149057698 18.021327177975504 0
152 1 9 7.227893998347592 18.186592798839765 0
153 1 8 14.142830090818743 18.175691446128933 0
154 1 14 20.957228975722096 18.165463116185038 0
155 1 10 28.030280814652752 18.20233896253162 0
156 1 10 34.68698889479927 18.253060618385046 0
157 1 10 41.60392885179151 18.368553663629456 0
158 1 14 48.53069221804491 18.09186271163594 0
159 1 8 55.67994579907676 18.375272370727057 0
160 1 9 62.43398331407425 18.03854461258195 0
161 1 10 69.29639386072263 18.235920835979055 0
162 1 11 76.21538407873778 18.34933565554901 0
163 1 12 83.27873224310655 18.393106518734328 0
164 1 12 90.36909517389469 18.327811237623045 0
165 1 11 97.37219825536015 18.049378616570028 0
166 1 10 104.26286020299962 18.355539372085456 0
167 1 9 111.16632755734305 18.00251957688181 0
168 1 8 117.92556192055234 18.09746591688209 0
169 1 14 125.0698167216824 18.001145697734202 0
170 1 10 131.85699826580367 18.165809578702603 0
171 1 10 138.92198973356915 18.047057964725578 0
172 1 10 145.6209615412636 18.37161707885092 0
173 1 14 152.48180566860432 18.34554378149418 0
174 1 8 159.51230675315196 18.014358224264125 0
175 1 9 166.36694222499332 18.01815877436741 0
176 1 4 -3.1088446355103145 20.035438982450625 0
177 1 14 3.7228791130482324 20.366949147764146 0
178 1 8 10.718609725086663 20.36529994802584 0
179 1 9 17.366947810990876 20.14537741174275 0
180 1 14 24.46612805263656 20.13277003938253 0
181 1 14 31.45780108177682 20.24878969332447 0
182 1 14 38.43922201685982 20.13288679127372 0
183 1 14 45.30642683498943 20.381929476869374 0
184 1 9 51.97429244606634 20.18625028821262 0
185 1 8 58.90130939476329 20.15529141009766 0
186 1 14 66.13047596165012 20.081637982103413 0
187 1 15 72.79748129538376 20.34043785969478 0
188 1 12 79.71813131847878 20.16643081967279 0
189 1 12 86.89416906510013 20.155318838164693 0
190 1 12 93.76323684291135 20.042196222018482 0
191 1 15 100.7449731308102 20.23225171418042 0
192 1 14 107.48769281627594 20.33232678232828 0
193 1 8 114.3439557257466 20.069288110759327 0
194 1 9 121.26464065557995 20.381186280652976 0
195 1 14 128.34799547803468 20.00854706736263 0
196 1 14 135.38216369478437 20.32601483423934 0
197 1 14 142.28809321575167 20.17460563436468 0
198 1 14 149.0930280679399 20.211642326624244 0
199 1 9 156.06122031357268 20.2630996472189 0
200 1 8 163.18855576273657 20.12220143614901 0
201 1 18 -3.384531393517158 24.036231363371346 0
202 1 10 3.614811885699307 24.12183267141043 0
203 1 9 10.400715251610755 24.212205069561865 0
204 1 8 17.535110959885877 24.080007605708573 0
205 1 9 24.478111482403854 24.05886528672687 0
206 1 9 31.234470977725998 24.277374000208727 0
207 1 9 38.400233834076445 24.301576951488045 0
208 1 9 45.269622438789426 24.016780768498105 0
209 1 8 52.13791613294444 24.18867428980329 0
210 1 9 59.03381020428318 24.347386956040108 0
211 1 10 65.90330376427465 24.24044507368841 0
212 1 11 72.82408673642063 24.353989620138613 0
213 1 12 79.97999472605643 24.159388447098774 0
214 1 13 86.73582436225483 24.214387783288164 0
215 1 12 93.5342762450688 24.122809743108082 0
216 1 11 100.756470362451 24.22793990720694 0
217 1 10 107.3981147668554 24.132374461184455 0
218 1 9 114.57210032731948 24.258807194368437 0
219 1 8 121.62166982750931 24.147775389187956 0
220 1 9 128.47067830109808 24.02913868224033 0
221 1 9 135.1666976922239 24.387119785198404 0
222 1 9 142.05752785169463 24.30518050101095 0
223 1 9 148.95982681169605 24.08717613085294 0
224 1 8 156.00403271780203 24.37459988766883 0
225 1 9 163.17901936493536 24.270309976436 0
226 1 15 0.162606650654719 26.11633717976974 0
227 1 14 7.154171263264628 26.0544939438648 0
228 1 8 14.151391581046976 26.25055526301295 0
229 1 8 21.150990852828098 26.356945285451722 0
230 1 8 27.950753319039077 26.26464532806991 0
231 1 8 35.00269819963077 26.372651156653763 0
232 1 8 41.751316690642 26.12340261481952 0
233 1 8 48.557283757494716 26.21137720242231 0
234 1 8 55.53485225008856 26.36515879678255 0
235 1 14 62.6515138840923 26.363612802604568 0
236 1 15 69.38997736500862 26.323786283615018 0
237 1 12 76.24751686644666 26.23070056403188 0
238 1 13 83.22417874889399 26.306550103764177 0
239 1 13 90.31807577774528 26.140065003121112 0
240 1 12 97.22629096795838 26.196712348897798 0
241 1 15 104.0114622383821 26.17344532934713 0
242 1 14 110.88187796407992 26.370070646239025 0
243 1 8 117.95517403712948 26.13057414368939 0
244 1 8 124.90997706577357 26.113872731943136 0
245 1 8 131.74149347293618 26.39545779633468 0
246 1 8 138.86983995126087 26.30079708439534 0
247 1 8 145.6530926653186 26.31611044113455 0
248 1 8 152.66001068872652 26.108632663137215 0
249 1 8 159.43164250671862 26.28521733333753 0
250 1 14 166.3946892085853 26.300203434397513 0
251 1 15 0.38050298804236543 30.299658949286574 0
252 1 14 7.0802224362231385 30.159555867536742 0
253 1 8 14.154898878627705 30.137284887459614 0
254 1 8 20.848060773976062 30.01730146662884 0
255 1 8 27.92771325416939 30.352780677084283 0
256 1 8 34.829608152725335 30.15201067544239 0
257 1 8 41.68722641485656 30.20221786229467 0
258 1 8 48.80917223216576 30.129724342451283 0
259 1 8 55.45357349180782 30.16523091159174 0
260 1 14 62.43183373259863 30.149637059230784 0
261 1 15 69.48883920955242 30.36466182495248 0
262 1 12 76.50704125708205 30.151540589385817 0
263 1 13 83.47323879651572 30.176252066816957 0
264 1 13 90.23816233254404 30.389742074116093 0
265 1 12 97.02551668334976 30.251602404969535 0
266 1 15 104.10515056554964 30.126267322434924 0
267 1 14 111.23331509689275 30.332726031011127 0
268 1 8 117.78221760715783 30.234962771778605 0
269 1 8 124.72890526816492 30.258664026895065 0
270 1 8 131.86707425395528 30.361172966475788 0
271 1 8 138.95577105840442 30.36078538990214 0
272 1 8 145.54294102905453 30.342325428903735 0
273 1 8 152.78132476209092 30.244793102937905 0
274 1 8 159.4628868904148 30.27202907021619 0
275 1 14 166.3188425223546 30.12692771353298 0
276 1 18 -3.0754874382835666 32.38000043666449 0
277 1 10 3.7233280293234436 32.36947676339331 0
278 1 9 10.405837354495375 32.207560863764954 0
279 1 8 17.344629155708375 32.03406229910593 0
280 1 9 24.50046794770638 32.36616177668172 0
281 1 9 31.376018149571255 32.20548221177973 0
282 1 9 38.186647879739915 32.39620172709541 0
283 1 9 45.37062539351883 32.01448283957268 0
284 1 8 52.22727791814388 32.08289065745874 0
285 1 9 59.25516508301052 32.27618964506024 0
286 1 10 65.94927354219163 32.000237995098196 0
287 1 11 72.8888811985042 32.10352417085231 0
288 1 12 79.83948964924627 32.33304068758543 0
289 1 13 86.90866991644636 32.33666899248499 0
290 1 12 93.73141166220753 32.11787461177017 0
291 1 11 100.46877386341832 32.29417281596968 0
292 1 10 107.62523700542512 32.22194614412433 0
293 1 9 114.37010007448508 32.09863665699919 0
294 1 8 121.5639461944716 32.0874192306725 0
295 1 9 128.49274946470663 32.04741026467256 0
296 1 9 135.2268549757831 32.068788618442305 0
297 1 9 142.30056755630736 32.33713106605669 0
298 1 9 149.31001657490094 32.1014470664664 0
299 1 8 156.12804284039441 32.16007511981103 0
300 1 9 163.19735489062205 32.044006257533624 0
301 1 4 -3.3951897016110517 36.37041203354015 0
302 1 14 3.69203786181858 36.37298039815602 0
303 1 8 10.437571337226542 36.171055272446644 0
304 1 9 17.48984328314983 36.025250347996554 0
305 1 14 24.49556322978529 36.211431360953675 0
306 1 14 31.294514074453886 36.09851335971086 0
307 1 14 38.33289638520185 36.1417442445574 0
308 1 14 45.31945342445956 36.37199188742208 0
309 1 9 52.27602163392689 36.14506113428948 0
310 1 8 58.945264868745475 36.19963262134117 0
311 1 14 66.06284619466607 36.173798066949125 0
312 1 15 73.0419711694285 36.10943553128379 0
313 1 12 79.92710093663972 36.24900122059585 0
314 1 12 86.94571323861696 36.2044359187528 0
315 1 12 93.9236904343626 36.06976062008075 0
316 1 15 100.62369769955436 36.304036189707254 0
317 1 14 107.77803155352925 36.299817943776986 0
318 1 8 114.54423971917745 36.087245616301615 0
319 1 9 121.54938480733291 36.05869967356813 0
320 1 14 128.5593913632833 36.12416211410446 0
321 1 14 135.23010670856758 36.122184320338256 0
322 1 14 142.1728874966578 36.06405187329856 0
323 1 14 149.22991457157647 36.04191693502865 0
324 1 9 156.14423481895167 36.131398629968466 0
325 1 8 163.0281171980901 36.29508063680302 0
326 1 10 0.06039032858996518 38.05730442583927 0
327 1 9 6.950187135519462 38.01281970680677 0
328 1 8 14.185848575334436 38.399095212368046 0
329 1 14 21.0882854491185 38.14010523879136 0
330 1 10 27.787736235379942 38.094840902476875 0
331 1 10 34.68354929223666 38.330311799411824 0
332 1 10 41.84084596716304 38.30815796103967 0
333 1 14 48.659045682879956 38.26704375855465 0
334 1 8 55.57471653052862 38.17851453509529 0
335 1 9 62.44775123580727 38.32823499933794 0
336 1 10 69.33789430452688 38.01857367104853 0
337 1 11 76.26440894409662 38.33132634912606 0
338 1 12 83.44820017181772 38.383777834813245 0
339 1 12 90.301424468737 38.304774809921064 0
340 1 11 97.22008975781877 38.01349190475674 0
341 1 10 104.21823667592712 38.01639460398896 0
342 1 9 111.06259540884027 38.04963663970069 0
343 1 8 117.79923279059301 38.29830910085848 0
344 1 14 124.88929301135052 38.37241242330639 0
345 1 10 131.88732330398346 38.092265153445055 0
346 1 10 138.89796398000408 38.03770550315355 0
347 1 10 145.6642667930395 38.34219966930307 0
348 1 14 152.60688465985413 38.006960228534574 0
349 1 8 159.6191532832627 38.273509578337 0
350 1 9 166.5077431296806 38.33246725970184 0
351 1 14 0.2584048843521393 42.08779798513077 0
352 1 8 7.290583962660028 42.26767710762311 0
353 1 9 14.004210550940188 42.015312788484685 0
354 1 10 20.99424610358685 42.23969151944605 0
355 1 17 27.991315095844108 42.116328626927114 0
356 1 17 34.83131178131655 42.14388041325267 0
357 1 17 41.810982161933694 42.0746159096507 0
358 1 10 48.70741232529018 42.3958697967145 0
359 1 9 55.61953077346814 42.23502225200387 0
360 1 8 62.72192308431118 42.24608513950709 0
361 1 14 69.64303348422854 42.29466333916418 0
362 1 15 76.41826502109696 42.14104847290999 0
363 1 11 83.52551487785477 42.1268724615402 0
364 1 11 90.38295545955818 42.08166140577644 0
365 1 15 97.25069087236987 42.24122042864727 0
366 1 14 104.16367229095987 42.339179897824906 0
367 1 8 111.20112054849274 42.194148638506896 0
368 1 9 117.80347882483889 42.07232113898571 0
369 1 10 125.00929329673617 42.023891531460464 0
370 1 17 131.86387848165256 42.238155766826715 0
371 1 17 138.91013019628426 42.08719843514006 0
372 1 17 145.8692320985814 42.22406458068104 0
373 1 10 152.53418532451255 42.0966232357654 0
374 1 9 159.4547540767969 42.17403634651699 0
375 1 8 166.56375797460234 42.23819582967552 0
376 1 16 -3.2123660667775114 44.05999379370426 0
377 1 9 3.710167727395657 44.29677675608527 0
378 1 8 10.767971261179394 44.240121212494806 0
379 1 14 17.521300872605874 44.15669165970134 0
380 1 15 24.321769641904883 44.38627083961197 0
381 1 11 31.315834088048916 44.166914933845725 0
382 1 11 38.41844975472784 44.213898637258275 0
383 1 15 45.133538519477185 44.33495681403736 0
384 1 14 52.18488114348954 44.19475236768264 0
385 1 8 59.19282250703446 44.26493196967718 0
386 1 9 65.84108687062671 44.24211294312367 0
387 1 10 72.99200152766967 44.1272233009903 0
388 1 17 80.06816075425378 44.2077585354095 0
389 1 17 86.90402399207947 44.03739524968886 0
390 1 17 93.85067505375237 44.25896095330715 0
391 1 10 100.64676028022356 44.31715575150237 0
392 1 9 107.6464252582583 44.314155491090226 0
393 1 8 114.45499739330357 44.09962030642752 0
394 1 14 121.2600838741907 44.18777825473133 0
395 1 15 128.37999449904413 44.28366974143739 0
396 1 11 135.46159873980187 44.24790093175412 0
397 1 11 142.24294005359008 44.10506077589556 0
398 1 15 149.2038506928722 44.30943824507211 0
399 1 14 155.95856690444833 44.378806350370084 0
400 1 8 163.03238270464962 44.08041353995047 0
401 1 3 -3.4259316271714724 48.243385464766945 0
402 1 8 3.7963269392912236 48.23491211261472 0
403 1 9 10.431040489052634 48.17447849842146 0
404 1 10 17.510851800123355 48.016299694466824 0
405 1 11 24.605304880883622 48.35513625081005 0
406 1 12 31.43191929180793 48.31504393012195 0
407 1 12 38.23077961749989 48.36709373474849 0
408 1 11 45.3120348945473 48.15429449902532 0
409 1 10 52.2837397797442 48.28211049998291 0
410 1 9 59.067884387921254 48.19268980322964 0
411 1 8 65.82441010313636 48.23125058814872 0
412 1 14 73.07307168257216 48.039970313404574 0
413 1 10 80.04240035652013 48.19615051522625 0
414 1 10 86.96471638220812 48.32253102338922 0
415 1 10 93.85971714284419 48.307389133512444 0
416 1 14 100.78816232188895 48.33827708366262 0
417 1 8 107.67597600388878 48.35571483250033 0
418 1 9 114.46701392292448 48.168952179471454 0
419 1 10 121.5599803191302 48.03582020153789 0
420 1 11 128.24659264602295 48.24324173776568 0
421 1 12 135.18354647431698 48.2522388223539 0
422 1 12 142.18894411906368 48.14664207795303 0
423 1 11 149.17277281604717 48.27904183995648 0
424 1 10 155.910126470044 48.396918222841514 0
425 1 9 163.18605695998193 48.393817024685745 0
426 1 9 0.254605615344842 50.04823874660509 0
427 1 8 7.27542963757649 50.02078371204065 0
428 1 14 13.873081338382574 50.09424673718849 0
429 1 15 20.999105578532323 50.27038529981447 0
430 1 12 28.02648294099575 50.15571349626632 0
431 1 12 34.897354259113854 50.270620232048465 0
432 1 12 41.74882509932858 50.074968787874695 0
433 1 15 48.669378194668184 50.08441397331602 0
434 1 14 55.52865390960754 50.328976037318945 0
435 1 8 62.59155705343172 50.00703297286757 0
436 1 9 69.61287033864234 50.03671057633592 0
437 1 14 76.36240150927809 50.27178802613942 0
438 1 14 83.15665794687693 50.204993435803445 0
439 1 14 90.3050885405141 50.21069407236337 0
440 1 14 97.3612767816534 50.207262374981724 0
441 1 9 103.93905360316637 50.34319377361002 0
442 1 8 111.06431549160746 50.038456606021555 0
443 1 14 118.14299877070609 50.30618310020843 0
444 1 15 124.92109519001575 50.28386019753059 0
445 1 12 131.79942089121795 50.16681930679459 0
446 1 12 138.8355912227738 50.095780978165095 0
447 1 12 145.56702917213323 50.04694812544385 0
448 1 15 152.47336427435053 50.063671049444224 0
449 1 14 159.3872500922073 50.183643188059634 0
450 1 8 166.49271436014223 50.068403154486774 0
451 1 8 0.27455159018692366 54.21388627632391 0
452 1 9 7.180578287443764 54.06129830223765 0
453 1 10 14.145586409926265 54.13698595907355 0
454 1 11 20.90416150771266 54.32377082097144 0
455 1 12 27.799161082944412 54.25325964040162 0
456 1 13 34.663273460178026 54.154296810438964 0
457 1 12 41.74370472715022 54.39511438860356 0
458 1 11 48.739206240033866 54.25094034910982 0
459 1 10 55.71400896822375 54.129597166489894 0
460 1 9 62.75011026490656 54.383655876136636 0
461 1 8 69.30513692185707 54.30781251368862 0
462 1 9 76.31233558748498 54.309974575321135 0
463 1 9 83.15585771720855 54.0747985343063 0
464 1 9 90.29179943622835 54.01525274160777 0
465 1 9 97.2381227448506 54.25481173644022 0
466 1 8 104.09552906704769 54.23486933031848 0
467 1 9 111.19530664277549 54.172554803722626 0
468 1 10 118.15243605361815 54.03226160873504 0
469 1 11 124.84942086528288 54.03088959964541 0
470 1 12 131.87446854339075 54.27267732636485 0
471 1 13 138.597119206698 54.148566003753174 0
472 1 12 145.72798372693634 54.34413887649227 0
473 1 11 152.58959316578287 54.27656768137771 0
474 1 10 159.65344411541577 54.13458521291068 0
475 1 9 166.44063422738336 54.10508992890056 0
476 1 2 -3.204586085023661 56.26708996282891 0
477 1 8 3.62845005048743 56.291209847630796 0
478 1 14 10.479835289566626 56.09153886397103 0
479 1 15 17.530782425715078 56.04900002739836 0
480 1 12 24.312069064842316 56.023113075499694 0
481 1 13 31.35795521276629 56.16493371709755 0
482 1 13 38.16010659476784 56.24130096377615 0
483 1 12 45.071112269428525 56.36041535305599 0
484 1 15 52.299393932406026 56.10928403895486 0
485 1 14 59.13010097074267 56.070310588696195 0
486 1 8 65.85860018145218 56.18636536408548 0
487 1 8 72.97765948139565 56.18554426860222 0
488 1 8 79.86885136276118 56.364543435407114 0
489 1 8 86.67434068239469 56.00790485392858 0
490 1 8 93.66243215962098 56.243854465009996 0
491 1 8 100.78424006441635 56.31681676124962 0
492 1 8 107.72454012862251 56.02414362264652 0
493 1 14 114.54644151550642 56.279460203166856 0
494 1 15 121.28336088899647 56.217227851505825 0
495 1 12 128.3888838935212 56.24623185339678 0
496 1 13 135.42740605352668 56.19151315865867 0
497 1 13 142.1196627419747 56.291944478864174 0
498 1 12 149.23137762390465 56.21815595862477 0
499 1 15 156.22606122941727 56.00029853664262 0
500 1 14 162.93777392047645 56.00478037591891 0
501 1 2 -3.186196888841965 60.15482814660513 0
502 1 8 3.732128799777815 60.343334704612005 0
503 1 14 10.61246452843599 60.33912991823703 0
504 1 15 17.383106119168588 60.04415392762601 0
505 1 12 24.584057935031936 60.205697830826864 0
506 1 13 31.36341923102679 60.109612394717324 0
507 1 13 38.49540935584453 60.16329756217475 0
508 1 12 45.11235517655369 60.38451651562503 0
509 1 15 52.238745499347374 60.05397352579275 0
510 1 14 59.00638405148884 60.24497132432351 0
511 1 8 66.14981309532693 60.14584377698714 0
512 1 8 73.06358541740897 60.19524309398982 0
513 1 8 79.74702664892196 60.131180294170996 0
514 1 8 86.82660832982643 60.21810984158612 0
515 1 8 93.69092040392358 60.015347516029095 0
516 1 8 100.62926949583081 60.276184067056334 0
517 1 8 107.68343139809772 60.19484051955251 0
518 1 14 114.68950924631534 60.32599901514652 0
519 1 15 121.5615993109004 60.27245301421574 0
520 1 12 128.54195748370753 60.2468437896703 0
521 1 13 135.46866218674703 60.203656282885625 0
522 1 13 142.26989168268375 60.07776199200762 0
523 1 12 149.17040914543782 60.382681047760755 0
524 1 15 156.20609976127395 60.03938350383168 0
525 1 14 163.00422481397462 60.28506368323658 0
526 1 8 0.15224419437946013 62.37946789672592 0
527 1 9 7.234269769191185 62.11302816546431 0
528 1 10 14.25200053097245 62.1891557262021 0
529 1 11 21.080291625463147 62.120462944981504 0
530 1 12 27.724703407338495 62.04393795943065 0
531 1 13 34.808012084772685 62.246408904616935 0
532 1 12 41.90388683808313 62.04287356352176 0
533 1 11 48.80143239323665 62.399879889190636 0
534 1 10 55.64800745363949 62.20137901665112 0
535 1 9 62.482633198160755 62.356045735487236 0
536 1 8 69.63177866099622 62.129384307828126 0
537 1 9 76.53999061555487 62.15960894432142 0
538 1 9 83.19843738529464 62.37175217754663 0
539 1 9 90.42696174253643 62.3984423410332 0
540 1 9 97.03805078967562 62.01153110280755 0
541 1 8 104.024429737991 62.25882471317241 0
542 1 9 111.15926242505044 62.1404208875386 0
543 1 10 118.06052522940567 62.32374747755867 0
544 1 11 124.75271374263464 62.00847832624117 0
545 1 12 131.7619046831697 62.32575185756879 0
546 1 13 138.77615048260782 62.1464601138771 0
547 1 12 145.6025434649158 62.32076238751219 0
548 1 11 152.77284902635145 62.262068301802145 0
549 1 10 159.68012791111678 62.21201236014653 0
550 1 9 166.3950957526832 62.221241468805225 0
551 1 9 0.05627971449625187 66.25420210473759 0
552 1 8 7.255952183768234 66.39633703380831 0
553 1 14 14.172462581037234 66.14921215253545 0
554 1 15 21.10429395093498 66.12319545194741 0
555 1 12 27.958075147940715 66.29270395743781 0
556 1 12 34.85518204488617 66.19563122312069 0
557 1 12 41.94676166790066 66.36826850862045 0
558 1 15 48.731300418095906 66.01149172264606 0
559 1 14 55.56785959419163 66.04406127647249 0
560 1 8 62.521592820344665 66.10709440069978 0
561 1 9 69.49035328201651 66.0183207116575 0
562 1 14 76.47121164218889 66.06219604079008 0