
14309 atoms
14896 bonds
16659 angles
14 atom types
4 bond types
9 angle types

-5.680607966083864 171.52447279080386 xlo xhi
-2.0 148.0 ylo yhi
-4 4 zlo zhi


Masses

1 0.0001986090963392781
2 0.0003574963734107006
3 0.0007547145660892568
4 0.0003972181926785562
5 0.0005561054697499787
6 0.0006355491082856899
7 0.0012710982165713798
8 0.0004369400119464118
9 0.0010327673009642461
10 0.00015888727707142247
11 0.0003972181926785562
12 0.00031777455414284494
13 0.0004766618312142674
14 0.0010327673009642461

Pair Coeffs

1 0.40509979849834776 0.44544935907016964 0.5
2 0.40509979849834776 0.44544935907016964 0.5
3 0.40509979849834776 0.44544935907016964 0.5
4 0.40509979849834776 0.44544935907016964 0.5
5 0.40509979849834776 0.44544935907016964 0.5
6 0.40509979849834776 0.44544935907016964 0.5
7 0.40509979849834776 0.44544935907016964 0.5
8 0.40509979849834776 0.44544935907016964 0.5
9 0.40509979849834776 0.44544935907016964 0.5
10 0.40509979849834776 0.44544935907016964 0.5
11 0.40509979849834776 0.44544935907016964 0.5
12 0.40509979849834776 0.44544935907016964 0.5
13 0.40509979849834776 0.44544935907016964 0.5
14 0.40509979849834776 0.44544935907016964 0.5

Bond Coeffs

1 79.44363853571123 0.5
2 63.55491082856899 0.5
3 95.33236624285348 0.5
4 206.55346019284923 0.5

Angle Coeffs

1 4.178266473412865 180
2 2.139272434387387 180
3 7.2200444660574306 180
4 73.43721153670454 180
5 2.8297254423113567 120
6 13.147482546148508 120
7 4.178266473412865 120
8 5.293287731713659 120
9 73.43721153670454 120

Atoms

1 1 1 -3.094332460374682 0.2278399151388955 0
2 1 2 3.716645680766784 0.35249507281914805 0
3 1 3 10.78741252145917 0.3449679723080593 0
4 1 3 17.32710583617323 0.15202635558185074 0
5 1 2 24.385421130977466 0.2784404189586827 0
6 1 4 31.2713166875445 0.16575604095347704 0
7 1 4 38.17525535154213 0.34274199108602926 0
8 1 2 45.40402498710675 0.30226987363600216 0
9 1 3 52.18944449542383 0.03995107958241917 0
10 1 3 59.11251178463548 0.15912299427748536 0
11 1 2 66.08325620034246 0.12047209220128946 0
12 1 4 72.95338732972527 0.08074601969470036 0
13 1 4 79.92735016268529 0.28659945049166496 0
14 1 2 86.9433443049249 0.11009111085605353 0
15 1 3 93.55301208057234 0.197203394927121 0
16 1 3 100.85850621637546 0.0781146425337679 0
17 1 2 107.68825512884366 0.14327540656165402 0
18 1 4 114.39269913082404 0.3920526018625391 0
19 1 4 121.44361071890991 0.1469087564001606 0
20 1 2 128.40293974397412 0.10435215596846166 0
21 1 3 135.38000837758028 0.038259799859979765 0
22 1 3 142.27144647999864 0.26582059036838984 0
23 1 2 149.0276055511628 0.2066085014342507 0
24 1 4 155.9069994295759 0.14813668963369328 0
25 1 4 162.8992435117545 0.04671965843950643 0
26 1 5 0.3485583136949636 2.2969891200347723 0
27 1 6 6.983455049809685 2.192049508584334 0
28 1 7 14.229141432572458 2.11754153492502 0
29 1 6 21.055629968968322 2.31071209540143 0
30 1 5 27.81142516099648 2.065069973794315 0
31 1 6 34.69154248828526 2.1504314799290336 0
32 1 5 41.65069459333102 2.1479736415892297 0
33 1 6 48.58703180515368 2.328680616955803 0
34 1 7 55.79252257134064 2.125936307182805 0
35 1 6 62.56027405015249 2.3296927712068465 0
36 1 5 69.42368368683287 2.3523342693179785 0
37 1 6 76.37663525637478 2.19204822806096 0
38 1 5 83.17453818338164 2.231638014838818 0
39 1 6 90.36283952914818 2.257304714651352 0
40 1 7 97.20069621762659 2.148625094896428 0
41 1 6 104.16831937674644 2.07929628307725 0
42 1 5 110.99319042251366 2.319183353483182 0
43 1 6 117.9206429447014 2.3470435219164574 0
44 1 5 125.06357671809636 2.399947551885084 0
45 1 6 131.8338852457379 2.38664309072181 0
46 1 7 138.8321040694831 2.0821541358851468 0
47 1 6 145.75539977345608 2.1054320342446067 0
48 1 5 152.6616041887548 2.035325512943995 0
49 1 6 159.50215405930263 2.1868375555941495 0
50 1 5 166.65372364241205 2.0814532223116506 0
51 1 6 0.29107606233060834 6.174795630724457 0
52 1 5 7.078669029234811 6.38847378660498 0
53 1 6 13.92420812803007 6.170966399025943 0
54 1 5 20.786049163820138 6.228584276001675 0
55 1 6 27.93582841675019 6.278495012913157 0
56 1 7 34.78277704037867 6.351317719511785 0
57 1 6 41.85318602304229 6.034495826481115 0
58 1 5 48.67326224600044 6.242568454021452 0
59 1 6 55.48719648952238 6.29427922131746 0
60 1 5 62.7098339492037 6.0329082938536045 0
61 1 6 69.483242210702 6.01595046493961 0
62 1 7 76.24927895073046 6.359489405590196 0
63 1 6 83.31637805066826 6.032145293952695 0
64 1 5 90.34512054583172 6.26922729018949 0
65 1 6 97.08914320774937 6.171479597560399 0
66 1 5 104.28162080054075 6.173955493200511 0
67 1 6 111.05311902281935 6.313185093848257 0
68 1 7 117.88689863964225 6.2748215465433415 0
69 1 6 124.8289242904926 6.149453321116889 0
70 1 5 131.99477933077347 6.386482353444935 0
71 1 6 138.95455275598212 6.085281030149851 0
72 1 5 145.8380425743771 6.1146179481634855 0
73 1 6 152.82013948540114 6.3796724945170125 0
74 1 7 159.69040224353 6.1954952647121 0
75 1 6 166.63707233158715 6.002811531853864 0
76 1 3 -3.2412418086116506 8.025048254598353 0
77 1 5 3.773927656826966 8.157057358022648 0
78 1 5 10.491209053980102 8.12653697328661 0
79 1 5 17.69551276178541 8.225370455931031 0
80 1 5 24.386007219883666 8.298871780998159 0
81 1 7 31.202310329296218 8.378036162953176 0
82 1 7 38.32077492118964 8.041629053402332 0
83 1 5 45.10752472964276 8.122483678981439 0
84 1 5 52.3100879471735 8.294952607570512 0
85 1 5 59.27647990881129 8.155460814589093 0
86 1 5 65.97374944377651 8.04891132218447 0
87 1 7 72.885504858067 8.140960804336494 0
88 1 7 79.74459463302888 8.165415811823033 0
89 1 5 86.81271240312562 8.038892907587973 0
90 1 5 93.60278339227999 8.247944141801975 0
91 1 5 100.72460911041878 8.008255368253032 0
92 1 5 107.70611008102838 8.149987747837852 0
93 1 7 114.43789816484563 8.318902999243676 0
94 1 7 121.51066851183647 8.249717626792108 0
95 1 5 128.49490111963974 8.34579623287185 0
96 1 5 135.48859477664044 8.029717375237395 0
97 1 5 142.2588643013014 8.006871635194969 0
98 1 5 149.16041256442335 8.317774524579441 0
99 1 7 156.12268788952184 8.249324901553956 0
100 1 7 163.0101427087263 8.292208543409616 0
101 1 3 -3.2377201043157227 12.252756977833489 0
102 1 5 3.684571069160186 12.111024711904173 0
103 1 5 10.738966125943394 12.303058079816466 0
104 1 5 17.571507686498794 12.097741512961903 0
105 1 5 24.534262705054104 12.247905737585679 0
106 1 7 31.412167717727087 12.05899099444531 0
107 1 7 38.26999381321931 12.04263421206541 0
108 1 5 45.27796947016815 12.384100105529111 0
109 1 5 52.17554662549337 12.275753508371448 0
110 1 5 59.27781272516406 12.382677882326153 0
111 1 5 65.96137812258705 12.245912609273953 0
112 1 7 72.83512078518325 12.025063951351441 0
113 1 7 79.82139270592202 12.315591019380967 0
114 1 5 86.85611661256694 12.039415026568495 0
115 1 5 93.57779607703806 12.071704179297004 0
116 1 5 100.84502005926333 12.271834218671144 0
117 1 5 107.59512793300502 12.17056505841506 0
118 1 7 114.69471324388654 12.145262413737978 0
119 1 7 121.63861164802239 12.34419350761723 0
120 1 5 128.39866094860574 12.230355632752909 0
121 1 5 135.400561339153 12.38227734742732 0
122 1 5 142.23220979903672 12.273528563795946 0
123 1 5 149.20459062226018 12.015227350382478 0
124 1 7 156.21268889341434 12.11132042283195 0
125 1 7 163.15162691515232 12.064851397988956 0
126 1 6 0.24845129295615143 14.041144167133181 0
127 1 5 6.947237526915993 14.191169047280711 0
128 1 6 13.882618224117293 14.058448716556754 0
129 1 5 21.183153533838976 14.07242365814335 0
130 1 6 27.823659138927333 14.377343974675112 0
131 1 7 34.98727584808708 14.129177923277231 0
132 1 6 41.61376749843736 14.05740754325826 0
133 1 5 48.79843990845391 14.04077785871332 0
134 1 6 55.485053458947746 14.027582643596194 0
135 1 5 62.452592315560125 14.033259173016614 0
136 1 6 69.53842621307584 14.24368857955993 0
137 1 7 76.49281571182375 14.080759693137203 0
138 1 6 83.51023104018385 14.392571623437398 0
139 1 5 90.38338715402348 14.115593906737145 0
140 1 6 97.31650685197341 14.21635502850504 0
141 1 5 104.04314876101037 14.076818725890568 0
142 1 6 111.23151502979196 14.089443078326935 0
143 1 7 117.86634667589111 14.30285518689497 0
144 1 6 124.8554958118276 14.090301505953626 0
145 1 5 131.86061865894408 14.199235998263143 0
146 1 6 138.79543526512504 14.273854974789604 0
147 1 5 145.88097479552687 14.233528857229722 0
148 1 6 152.6497762845348 14.033260445092647 0
149 1 7 159.43867422258697 14.274399990702536 0
150 1 6 166.6061435152162 14.265421127926844 0
151 1 5 0.10695806913646422 18.16489133753553 0
152 1 6 7.158960861901989 18.348945736544437 0
153 1 7 13.985750962929032 18.35338118052187 0
154 1 6 20.843678643240267 18.002162569071864 0
155 1 5 27.78354294265224 18.130507248044434 0
156 1 6 34.942465556579975 18.33497993248585 0
157 1 5 41.79209982001808 18.285337027252673 0
158 1 6 48.54586997791426 18.393546251967276 0
159 1 7 55.68227660657731 18.155707848483928 0
160 1 6 62.40000675884035 18.36810553505942 0
161 1 5 69.67372607320915 18.327887830275394 0
162 1 6 76.42320530350285 18.1303053291414 0
163 1 5 83.30698836383218 18.1181141773585 0
164 1 6 90.44367089608768 18.26571989802138 0
165 1 7 97.2049797699835 18.276543602844097 0
166 1 6 104.04194593116242 18.003716158652516 0
167 1 5 111.00728480782777 18.2206402803333 0
168 1 6 117.968385764277 18.232561619983876 0
169 1 5 124.94981610287611 18.00688504430777 0
170 1 6 132.0195311028865 18.040624014120628 0
171 1 7 138.93992464022443 18.007376411621657 0
172 1 6 145.51721530683332 18.28013288346939 0
173 1 5 152.53021663972729 18.201929854044412 0
174 1 6 159.71072727620796 18.022265795366227 0
175 1 5 166.3178291098477 18.148587332858796 0
176 1 2 -3.3218495622465563 20.117510977389138 0
177 1 5 3.63834487699327 20.35877869616654 0
178 1 7 10.78299793641172 20.142421951604707 0
179 1 7 17.39920438513472 20.38500807118496 0
180 1 5 24.46457597177109 20.327540896990637 0
181 1 5 31.247331582947474 20.077899984754602 0
182 1 5 38.290841505791214 20.330003583152482 0
183 1 5 45.42704523810094 20.203125382295863 0
184 1 7 52.32959808822727 20.035883036561142 0
185 1 7 59.07290194458338 20.059126735806437 0
186 1 5 65.81967609119724 20.322127247666707 0
187 1 5 72.9265524781923 20.136144327964537 0
188 1 5 79.68781614156377 20.173622751507363 0
189 1 5 86.80321891269904 20.18116956511425 0
190 1 7 93.56543391706303 20.026346954662273 0
191 1 7 100.77302773310468 20.390606626544518 0
192 1 5 107.61643229604866 20.303755196265904 0
193 1 5 114.4435686570378 20.28827462463827 0
194 1 5 121.52634397765104 20.365263804596243 0
195 1 5 128.2970937984976 20.239727246280967 0
196 1 7 135.2873100916007 20.330183447724064 0
197 1 7 142.41396860978125 20.04169283184855 0
198 1 5 149.0343027349668 20.03890432889313 0
199 1 5 156.09918564140563 20.24638725085987 0
200 1 5 163.1450823775576 20.147196452277015 0
201 1 2 -3.3139531119890044 24.132660870862374 0
202 1 5 3.6333670170322834 24.353638009950693 0
203 1 7 10.70822555456925 24.06246893041092 0
204 1 7 17.339216421892875 24.024309724830484 0
205 1 5 24.382108496441948 24.180000367758172 0
206 1 5 31.2820422447786 24.398010974290294 0
207 1 5 38.336545620660765 24.08753269690902 0
208 1 5 45.22057739724979 24.341304891608992 0
209 1 7 52.30886550763887 24.014938715406704 0
210 1 7 59.18703910702056 24.24387383672657 0
211 1 5 66.141843195215 24.21354105901587 0
212 1 5 72.89267189278205 24.105808166236486 0
213 1 5 79.87023695768482 24.25750886102528 0
214 1 5 86.68109027504164 24.009891028395863 0
215 1 7 93.56252369160958 24.36445550791658 0
216 1 7 100.54577460705583 24.1212215767205 0
217 1 5 107.57555906150867 24.166032066377355 0
218 1 5 114.57825043348417 24.314765157496794 0
219 1 5 121.49000188465789 24.309509173574362 0
220 1 5 128.29478854956142 24.25229911013325 0
221 1 7 135.2819985812099 24.12377914806863 0
222 1 7 142.25625790640365 24.24425999880803 0
223 1 5 149.22797615288258 24.20100377672632 0
224 1 5 156.08430672248727 24.12139054169375 0
225 1 5 162.8467394796905 24.097568876813828 0
226 1 5 0.3824722170036909 26.388799459302138 0
227 1 6 7.294277531171412 26.341198798067172 0
228 1 7 14.11140345224277 26.139695505965058 0
229 1 6 21.118871604191696 26.065575373389976 0
230 1 5 27.972228545093333 26.23335571118263 0
231 1 6 34.75704468975056 26.146457373589232 0
232 1 5 41.87228854537075 26.37844977653805 0
233 1 6 48.64113444431464 26.225489143497988 0
234 1 7 55.655274572979806 26.361069118866222 0
235 1 6 62.51720289852739 26.37392465927477 0
236 1 5 69.6059382320633 26.04784375789932 0
237 1 6 76.44026597349696 26.278768313805596 0
238 1 5 83.15038820074182 26.331745028738414 0
239 1 6 90.28822420818153 26.057227826798346 0
240 1 7 97.02824764221437 26.07549007695291 0
241 1 6 104.1721500214493 26.18793914386259 0
242 1 5 110.86996070410525 26.388008210598997 0
243 1 6 118.02531623576722 26.13385711536782 0
244 1 5 125.04859133475152 26.34220043641453 0
245 1 6 132.03414480850984 26.34085590107829 0
246 1 7 138.91619367420824 26.119202816189613 0
247 1 6 145.80713823375936 26.37051750993593 0
248 1 5 152.48510408287805 26.020006726808052 0
249 1 6 159.44037878517412 26.27779790713246 0
250 1 5 166.4394582335257 26.161862535830686 0
251 1 6 0.12532311385945888 30.374734298049784 0
252 1 5 6.929258883955691 30.27096078228811 0
253 1 6 14.11916950263348 30.211172555652823 0
254 1 5 20.968437382086595 30.2424644489046 0
255 1 6 28.000870335337414 30.060729469369466 0
256 1 7 34.97757609704865 30.209878145193777 0
257 1 6 41.76065731627397 30.35923301701282 0
258 1 5 48.8537311891219 30.220906506732288 0
259 1 6 55.501710229474284 30.254321823152875 0
260 1 5 62.70494707921249 30.09422632734032 0
261 1 6 69.61577885108562 30.274298264818412 0
262 1 7 76.33410443779768 30.17777460020596 0
263 1 6 83.39324873096933 30.28664620820653 0
264 1 5 90.14011338481292 30.13138776603333 0
265 1 6 97.29011911772531 30.09121361149917 0
266 1 5 104.12808082622156 30.185080877870504 0
267 1 6 110.8553479834983 30.198709893465743 0
268 1 7 118.00092393184 30.34177166098546 0
269 1 6 124.92008350687637 30.379905567855715 0
270 1 5 131.66763491443675 30.009937747192662 0
271 1 6 138.93110616427114 30.014669982226287 0
272 1 5 145.51816509003152 30.025752985167852 0
273 1 6 152.66218402353624 30.324989163152306 0
274 1 7 159.36979612895624 30.0087042693046 0
275 1 6 166.2857074714178 30.278380110935128 0
276 1 3 -3.152694669892358 32.076776025794715 0
277 1 5 3.7771495710169303 32.21772109472975 0
278 1 5 10.643802895838563 32.17376373320477 0
279 1 5 17.580952593681427 32.068471886226924 0
280 1 5 24.603128190693152 32.18919188159932 0
281 1 7 31.32277380429795 32.20560178434337 0
282 1 7 38.43771604977164 32.013440918429986 0
283 1 5 45.27820551126371 32.37102062481423 0
284 1 5 52.10957148516382 32.003534710601734 0
285 1 5 59.22660473637918 32.1729102612279 0
286 1 5 66.02713395759271 32.34563417340419 0
287 1 7 72.83875765861752 32.17335319682797 0
288 1 7 79.71324356643898 32.07155028698253 0
289 1 5 86.79440805205897 32.06719803854649 0
290 1 5 93.72269219765185 32.24605910657635 0
291 1 5 100.83459603993961 32.28434082046048 0
292 1 5 107.67908035227723 32.203321677635074 0
293 1 7 114.66653351247191 32.31934298323991 0
294 1 7 121.49745030443475 32.30670452078787 0
295 1 5 128.28263078525276 32.2845987780334 0
296 1 5 135.25267967086953 32.01496200950897 0
297 1 5 142.33024539147436 32.15070538646783 0
298 1 5 149.14037286615203 32.05466765565008 0
299 1 7 156.12994233229588 32.0617573401251 0
300 1 7 162.99417103238736 32.29389030629019 0
301 1 3 -3.3130258599843585 36.1951105925521 0
302 1 5 3.863941423571113 36.360152770464495 0
303 1 5 10.558336888388972 36.30156076005801 0
304 1 5 17.508796667937478 36.07570501599937 0
305 1 5 24.60151339348426 36.22595466257878 0
306 1 7 31.468907935814908 36.39423199897856 0
307 1 7 38.40221742524321 36.290484022186845 0
308 1 5 45.05517669873814 36.38293131364683 0
309 1 5 51.99947564677365 36.325632169524674 0
310 1 5 59.181009754452475 36.047443224337144 0
311 1 5 65.84370794230645 36.1660244685097 0
312 1 7 72.79903179227259 36.152408376031296 0
313 1 7 80.02312098912479 36.227641973903 0
314 1 5 86.8405097487393 36.04385879925782 0
315 1 5 93.67185117840913 36.317539624034694 0
316 1 5 100.52939990285012 36.14803303305758 0
317 1 5 107.41935284928775 36.296586002543 0
318 1 7 114.58082488086025 36.060601657947835 0
319 1 7 121.63726784934332 36.259741050775986 0
320 1 5 128.1803236369695 36.03856702760443 0
321 1 5 135.15216301047911 36.11502700690826 0
322 1 5 142.19243263350037 36.12348598785735 0
323 1 5 148.95708739910387 36.22202447381596 0
324 1 7 155.9755775076398 36.248489296704555 0
325 1 7 163.17491228623953 36.20823429321644 0
326 1 6 0.050357553987911224 38.385346934294255 0
327 1 5 7.109062406471627 38.04498732721638 0
328 1 6 14.106103741552838 38.16110971421557 0
329 1 5 21.027704350740798 38.1349036326282 0
330 1 6 27.945337383375808 38.26541781100645 0
331 1 7 34.82631942533968 38.29642625767403 0
332 1 6 41.808928227243065 38.36828507645574 0
333 1 5 48.83276355995728 38.02828853839911 0
334 1 6 55.60632051639594 38.04966739854813 0
335 1 5 62.45777164445858 38.29915771667237 0
336 1 6 69.30183602376434 38.13651218696555 0
337 1 7 76.43149458431425 38.212074591151186 0
338 1 6 83.39062337445584 38.04443842885985 0
339 1 5 90.23550625770402 38.08134227335933 0
340 1 6 97.2341753116232 38.33324956273714 0
341 1 5 104.30099822229042 38.224360375300286 0
342 1 6 110.94161926563484 38.34022855671653 0
343 1 7 117.98782676763996 38.307404673456546 0
344 1 6 124.76957149786256 38.36143191927067 0
345 1 5 131.90245295032364 38.09656479677849 0
346 1 6 138.60612712364372 38.14182996960382 0
347 1 5 145.58767814159066 38.37695289493202 0
348 1 6 152.69464453219544 38.030837161053746 0
349 1 7 159.53058296870665 38.17965067446665 0
350 1 6 166.6632852533725 38.035882499857244 0
351 1 5 0.2798149312441158 42.233319002882446 0
352 1 6 7.019328721969169 42.361532202832414 0
353 1 7 13.95530179856906 42.2237772102308 0
354 1 6 20.963931287012358 42.362930135790464 0
355 1 5 27.77732050866506 42.19909739698151 0
356 1 6 34.99246317886145 42.262642820156486 0
357 1 5 41.59022815674382 42.049764702318676 0
358 1 6 48.610053977656754 42.23699780490888 0
359 1 7 55.515010201273554 42.344489754371295 0
360 1 6 62.51474955262248 42.09863057840737 0
361 1 5 69.51660009464722 42.06918916630853 0
362 1 6 76.35374127595234 42.09234256594308 0
363 1 5 83.278204209758 42.12589024614835 0
364 1 6 90.41609680587851 42.34879906506789 0
365 1 7 97.16015172820626 42.089344235578146 0
366 1 6 104.12773031877447 42.12743330108688 0
367 1 5 111.1047451768624 42.004744764030534 0
368 1 6 117.82607474763087 42.31161744290462 0
369 1 5 124.89688329458309 42.23954393118706 0
370 1 6 131.7679562954412 42.372454133812205 0
371 1 7 138.85455738020977 42.14037188239432 0
372 1 6 145.68324066932027 42.351856926330555 0
373 1 5 152.76934709311945 42.31007493142221 0
374 1 6 159.55778452551382 42.19926719651025 0
375 1 5 166.3763081689891 42.031447090149115 0
376 1 2 -3.4011010243454605 44.122494402382564 0
377 1 5 3.5657110544576724 44.05032393813712 0
378 1 7 10.433788191255054 44.03578389948839 0
379 1 7 17.49017254226725 44.210774780405615 0
380 1 5 24.600025018302784 44.10470839733011 0
381 1 5 31.419863845515046 44.28889457769856 0
382 1 5 38.1318471615074 44.29809219685828 0
383 1 5 45.37490390899332 44.099370319603324 0
384 1 7 52.15861850665495 44.34712176756766 0
385 1 7 59.086185521243955 44.11585351299245 0
386 1 5 65.94979622992302 44.31874776901261 0
387 1 5 73.11491007230212 44.391939939637844 0
388 1 5 79.75216821397026 44.20130898063129 0
389 1 5 86.81082512094987 44.2105396679509 0
390 1 7 93.53635844164086 44.30791629820186 0
391 1 7 100.84076393925808 44.057072665190205 0
392 1 5 107.72616925319394 44.31656036461034 0
393 1 5 114.3498927597722 44.30649576206893 0
394 1 5 121.28107193150568 44.261386664250246 0
395 1 5 128.56330520243912 44.30355396742018 0
396 1 7 135.2887401279184 44.20223619370595 0
397 1 7 142.05837695757558 44.16614954490348 0
398 1 5 149.3449457919633 44.21551653964645 0
399 1 5 156.0341373529029 44.06041310350563 0
400 1 5 163.0007483361401 44.307942150224456 0
401 1 2 -3.27982557654691 48.1681387331413 0
402 1 5 3.6496144726615674 48.350978830891236 0
403 1 7 10.655574955736633 48.009975393612194 0
404 1 7 17.52789024682179 48.172055017151386 0
405 1 5 24.52440959903326 48.34663797481023 0
406 1 5 31.32011671958657 48.182608069343296 0
407 1 5 38.39137961392639 48.33182600111769 0
408 1 5 45.060567695846814 48.34177136639392 0
409 1 7 51.971828028098315 48.203397724615854 0
410 1 7 59.11763788215012 48.1334605130199 0
411 1 5 65.92247269024755 48.02515171101687 0
412 1 5 72.89410853940402 48.0444755087057 0
413 1 5 79.81803326823552 48.136110995420886 0
414 1 5 86.84367836755449 48.3296544426568 0
415 1 7 93.91991426101843 48.157049647124 0
416 1 7 100.72411462124758 48.291379067863026 0
417 1 5 107.5696971283804 48.203366119064924 0
418 1 5 114.3557861476586 48.02843397981835 0
419 1 5 121.39741875707062 48.06725451619156 0
420 1 5 128.21241799998904 48.38810758417764 0
421 1 7 135.15519632263664 48.11601113868297 0
422 1 7 142.39027181071347 48.347326004305074 0
423 1 5 149.17875778482139 48.34504813545959 0
424 1 5 156.19656016746302 48.21491257328286 0
425 1 5 163.13946191946286 48.28891420457705 0
426 1 5 0.2294274433651621 50.12493632296572 0
427 1 6 7.148022798945982 50.01312667945834 0
428 1 7 14.187143918571808 50.03831978423683 0
429 1 6 21.051194450625758 50.36195784869951 0
430 1 5 27.84433203563473 50.10958083969025 0
431 1 6 34.77527917233985 50.16300768260635 0
432 1 5 41.87960702491743 50.37327853088025 0
433 1 6 48.63860382412076 50.25558256739272 0
434 1 7 55.804871889876594 50.3984956331357 0
435 1 6 62.5391876180347 50.00197337467263 0
436 1 5 69.62695883848168 50.35154958750788 0
437 1 6 76.26083687824523 50.15561495096599 0
438 1 5 83.18620267416719 50.13352560138324 0
439 1 6 90.32476767050017 50.12120038922391 0
440 1 7 97.27211342461196 50.01227305565191 0
441 1 6 104.0625473847369 50.39232929404158 0
442 1 5 110.91994852318331 50.25944684495042 0
443 1 6 118.06533519273407 50.18693454356126 0
444 1 5 124.8551973157772 50.03895303740959 0
445 1 6 131.95053459514517 50.09566689911985 0
446 1 7 138.87915762173074 50.30614626141063 0
447 1 6 145.5695769557886 50.09327515933164 0
448 1 5 152.80020329536507 50.1616356135753 0
449 1 6 159.4355581160957 50.35497287037484 0
450 1 5 166.36653001026937 50.0222332301854 0
451 1 6 0.14421371468260152 54.38549170051247 0
452 1 5 7.005872935353935 54.00071775259081 0
453 1 6 14.234369306000582 54.31753324729386 0
454 1 5 20.9265164018828 54.19288751538149 0
455 1 6 28.034482372971134 54.22325854783526 0
456 1 7 34.91560871728363 54.38615026167341 0
457 1 6 41.77123036500593 54.37634239028285 0
458 1 5 48.617567167898024 54.12432024904997 0
459 1 6 55.68602080199639 54.07450264041967 0
460 1 5 62.433455589136834 54.14578047635156 0
461 1 6 69.31873511382521 54.351764315000565 0
462 1 7 76.35149468724919 54.203449248683306 0
463 1 6 83.32725346114954 54.23462435880603 0
464 1 5 90.21892114428951 54.12437071374388 0
465 1 6 97.33239400827927 54.32041192325637 0
466 1 5 104.03437851996334 54.298622710004956 0
467 1 6 111.13495034455693 54.09527958178854 0
468 1 7 118.03087987022978 54.38685104642985 0
469 1 6 124.90606879704656 54.005988071801234 0
470 1 5 131.98434826470105 54.229196296521756 0
471 1 6 138.5871735931283 54.00266392356955 0
472 1 5 145.6873534190079 54.09209850182096 0
473 1 6 152.60770149978043 54.05577195733071 0
474 1 7 159.37303696686726 54.15845580528633 0
475 1 6 166.45097330660997 54.17642825282399 0
476 1 3 -3.3618739562253444 56.27619957333278 0
477 1 5 3.5646814945090086 56.37484001707295 0
478 1 5 10.739767052523135 56.08136026733303 0
479 1 5 17.47625871581651 56.03664908690742 0
480 1 5 24.446115908178427 56.054108398124086 0
481 1 7 31.219741036354527 56.28938071592063 0
482 1 7 38.26200210347468 56.274126202265066 0
483 1 5 45.25251435042416 56.17347680538192 0
484 1 5 52.20670669897449 56.142769266103016 0
485 1 5 59.202740180836166 56.17532911332567 0
486 1 5 66.203639503575 56.135028062900496 0
487 1 7 73.10720355214323 56.29453923394497 0
488 1 7 79.80221097116315 56.049116810469165 0
489 1 5 86.687286505047 56.0287657453695 0
490 1 5 93.79980785801685 56.2343701502744 0
491 1 5 100.7257514641087 56.373443609379564 0
492 1 5 107.64996801814536 56.287960381261925 0
493 1 7 114.68064750759743 56.348270629605715 0
494 1 7 121.54288142687776 56.27281910134679 0
495 1 5 128.53032796183584 56.104668408825994 0
496 1 5 135.24126056214365 56.11892697242216 0
497 1 5 142.30962478278306 56.255087473496765 0
498 1 5 149.19774484954885 56.01029381134445 0
499 1 7 156.00023383859522 56.13705081564485 0
500 1 7 162.93230360462547 56.131500607347036 0
501 1 3 -3.1389898689434084 60.336615504444914 0
502 1 5 3.7890897030219097 60.12213231331035 0
503 1 5 10.761378847090123 60.25576393156835 0
504 1 5 17.326800122437078 60.3879850265581 0
505 1 5 24.48603864436278 60.05739482247896 0
506 1 7 31.218307009330054 60.26740422403632 0
507 1 7 38.260049993132675 60.26655311013996 0
508 1 5 45.08546763293813 60.07873802171662 0
509 1 5 52.36146081361724 60.35529503114895 0
510 1 5 59.23951095359893 60.14928131868209 0
511 1 5 65.9658833073849 60.244990769015786 0
512 1 7 72.9640088900879 60.108684218225086 0
513 1 7 79.84199828178382 60.00823619056186 0
514 1 5 86.91037626072197 60.35804744814656 0
515 1 5 93.59864049698382 60.227790021970904 0
516 1 5 100.50640708011329 60.06547535243407 0
517 1 5 107.7207869467325 60.031558890017244 0
518 1 7 114.64854434336897 60.21357811163991 0
519 1 7 121.52776839794568 60.34467672419537 0
520 1 5 128.3648266519536 60.39475247812356 0
521 1 5 135.328597083494 60.0679092630945 0
522 1 5 142.32163850743268 60.04675035985962 0
523 1 5 149.11699847582875 60.11408978994929 0
524 1 7 155.89616797406345 60.39156615113277 0
525 1 7 162.83944267443684 60.03459289409501 0
526 1 6 0.047460368590395596 62.082092580907634 0
527 1 5 6.976172562074607 62.24471251884506 0
528 1 6 14.067944186624555 62.18692676408466 0
529 1 5 20.854577017814144 62.39125834836792 0
530 1 6 27.827654313784702 62.115980450979436 0
531 1 7 34.97581019835259 62.13981870850994 0
532 1 6 41.78486336641948 62.354129761925726 0
533 1 5 48.50359188275175 62.36270993119004 0
534 1 6 55.445087829777094 62.2650167714823 0
535 1 5 62.456188119966704 62.37997803418146 0
536 1 6 69.45893139328717 62.32598195237586 0
537 1 7 76.46248191679729 62.22967096923589 0
538 1 6 83.4764252443757 62.32961305883174 0
539 1 5 90.22131555393997 62.36963755509239 0
540 1 6 97.37203366082575 62.02965280332333 0
541 1 5 104.00718064999388 62.38736640435944 0
542 1 6 111.23564424855098 62.13786872166645 0
543 1 7 117.86416707546215 62.28964408717175 0
544 1 6 125.08437459709268 62.22261884273968 0
545 1 5 131.98591150366877 62.387020022838925 0
546 1 6 138.844385748946 62.04776637299695 0
547 1 5 145.6558313472873 62.1455685580644 0
548 1 6 152.79187143268567 62.01024274242493 0
549 1 7 159.7331714950948 62.005529545684055 0
550 1 6 166.63791830511317 62.06560737230963 0
551 1 5 0.12204655277000152 66.17597873399465 0
552 1 6 7.293098716606417 66.25989473039535 0
553 1 7 13.993820763939445 66.25052019968702 0
554 1 6 21.111046371044633 66.05613893115452 0
555 1 5 27.987699384968735 66.28420945193572 0
556 1 6 34.911098608699305 66.22511863020962 0
557 1 5 41.7155603352946 66.3118737630274 0
558 1 6 48.55265582246926 66.16477366747567 0
559 1 7 55.46713476086273 66.02272319896629 0
560 1 6 62.59014957003435 66.07226124724362 0
561 1 5 69.66578469874128 66.20545640531527 0
562 1 6 76.57287442568615 66.33583701530844 0
563 1 5 83.34628494817858 66.25704010312343 0
564 1 6 90.27302270343078 66.29305296843634 0
565 1 7 97.33034762470487 66.00499046232193 0
566 1 6 104.08217294911172 66.1801187688798 0
567 1 5 111.1062091276818 66.15413929082422 0
568 1 6 117.99942202772269 66.27573371484687 0
569 1 5 124.74955940604548 66.07108801648324 0
570 1 6 131.74138535289256 66.10640151825876 0
571 1 7 138.91382457022078 66.20131603273634 0
572 1 6 145.56443748729112 66.20954038226903 0
573 1 5 152.78093093930275 66.30351306173065 0
574 1 6 159.49636896103254 66.15879412947811 0
575 1 5 166.5910116422009 66.34656972452888 0
576 1 2 -3.327714147272852 68.25922231808674 0
577 1 5 3.5814267055487305 68.2799345369248 0
578 1 7 10.710849602511352 68.1650398207612 0
579 1 7 17.467122162822367 68.11639824235046 0
580 1 5 24.420237430848502 68.23901736686508 0
581 1 5 31.341315091675856 68.06953146804784 0
582 1 5 38.24006975267778 68.08318657121222 0
583 1 5 45.07018142277441 68.03947320804502 0
584 1 7 52.13766360570937 68.00879885050742 0
585 1 7 59.21668833435934 68.26391818085538 0
586 1 5 66.20188039495005 68.08965837750453 0
587 1 5 73.10814117156573 68.3422938094366 0
588 1 5 79.8595544203581 68.34496035102671 0
589 1 5 86.91469433917659 68.36367270550339 0
590 1 7 93.57595127484934 68.23879533719318 0
591 1 7 100.77590289378507 68.07954377598838 0
592 1 5 107.70407126467683 68.34725366575996 0
593 1 5 114.4737305152635 68.12475979189878 0
594 1 5 121.35938930407337 68.06639353946471 0
595 1 5 128.4259359390191 68.16830849235858 0
596 1 7 135.32456154931072 68.33039879276079 0
597 1 7 142.34181233857552 68.26022019240386 0