
14309 atoms
14896 bonds
16659 angles
12 atom types
3 bond types
7 angle types

-5.680607966083864 171.52447279080386 xlo xhi
-2.0 148.0 ylo yhi
-4 4 zlo zhi


Masses

1 0.00024047526798398554
2 0.0004208317189719747
3 0.0006011881699599639
4 0.0004809505359679711
5 0.0006613069869559603
6 0.000781544620947953
7 0.0009017822549399457
8 0.0005410693529639674
9 0.00018035645098798915
10 0.0004809505359679711
11 0.0003607129019759783
12 0.0006011881699599639

Pair Coeffs

1 0.40509979849834776 0.44544935907016964 0.5
2 0.40509979849834776 0.44544935907016964 0.5
3 0.40509979849834776 0.44544935907016964 0.5
4 0.40509979849834776 0.44544935907016964 0.5
5 0.40509979849834776 0.44544935907016964 0.5
6 0.40509979849834776 0.44544935907016964 0.5
7 0.40509979849834776 0.44544935907016964 0.5
8 0.40509979849834776 0.44544935907016964 0.5
9 0.40509979849834776 0.44544935907016964 0.5
10 0.40509979849834776 0.44544935907016964 0.5
11 0.40509979849834776 0.44544935907016964 0.5
12 0.40509979849834776 0.44544935907016964 0.5

Bond Coeffs

1 96.19010719359422 0.5
2 72.14258039519565 0.5
3 120.23763399199277 0.5

Angle Coeffs

1 7.4166874924473705 180
2 3.1289150358762345 180
3 14.485717758686272 180
4 4.401111259254483 120
5 14.485717758686272 120
6 7.4166874924473705 120
7 9.810433191067954 120

Atoms

1 1 1 -3.262773999346821 0.1279015627022249 0
2 1 2 3.6451216051322453 0.07381435964677051 0
3 1 3 10.588084795533778 0.2264389183806047 0
4 1 3 17.59759501486859 0.06046220690757993 0
5 1 2 24.26099175364845 0.13445170796785852 0
6 1 4 31.487337205568963 0.22402186554691472 0
7 1 4 38.1728448010466 0.2891081766280973 0
8 1 2 45.348988420638975 0.1055300515951903 0
9 1 3 52.34011175212619 0.1567474132898982 0
10 1 3 59.12989535704636 0.02891843895755133 0
11 1 2 65.98694668832192 0.3274849219026634 0
12 1 4 72.90294764841701 0.37297216644194203 0
13 1 4 79.967876300666 0.004919371650901461 0
14 1 2 86.84057445558958 0.15403794684007246 0
15 1 3 93.67618433399447 0.16506799763724622 0
16 1 3 100.61291851866181 0.14987462658058978 0
17 1 2 107.4398643807167 0.19913960605179418 0
18 1 4 114.4883834587971 0.22254318697164358 0
19 1 4 121.49780084881712 0.2952666930196822 0
20 1 2 128.18887969409963 0.3225537513195212 0
21 1 3 135.40984371749653 0.3795015485191244 0
22 1 3 142.37286176250007 0.27162444849101486 0
23 1 2 149.34599821700547 0.13745248647156005 0
24 1 4 156.00645721412505 0.34294967598154313 0
25 1 4 162.99446570470397 0.03299514753359163 0
26 1 5 0.10400446620459865 2.036195281740772 0
27 1 6 6.986864469115121 2.031879604120402 0
28 1 7 14.079282450386286 2.2582833595126255 0
29 1 6 20.97135656173823 2.088506052565715 0
30 1 5 27.79506675618143 2.222586119807586 0
31 1 6 34.64897152688687 2.29838534724558 0
32 1 5 41.73440327632482 2.1267211962534436 0
33 1 6 48.66803432378254 2.1515662614232216 0
34 1 7 55.5008275022803 2.06825357540452 0
35 1 6 62.64543717808347 2.1317630290085527 0
36 1 5 69.5488039761174 2.2119699307268865 0
37 1 6 76.38590297972712 2.2935529329323816 0
38 1 5 83.37014132096219 2.2581779165095495 0
39 1 6 90.17825835285748 2.0583577217678566 0
40 1 7 97.21501644177619 2.241553886982845 0
41 1 6 104.00319889835193 2.2549606874488 0
42 1 5 110.85549950140317 2.0580815608356033 0
43 1 6 117.81254942530839 2.0760305839254256 0
44 1 5 124.82693944525592 2.3762356915189002 0
45 1 6 131.93973630267925 2.019312679253811 0
46 1 7 138.7389391858635 2.26146261927032 0
47 1 6 145.58716526194206 2.046710868885208 0
48 1 5 152.5316757200495 2.0242719512325458 0
49 1 6 159.46399319162552 2.2688903896225225 0
50 1 5 166.3246077345541 2.0758835170816146 0
51 1 6 0.2415639345359234 6.3423561507852835 0
52 1 5 7.00836036547744 6.386864042019437 0
53 1 6 14.230466064251388 6.086399741574935 0
54 1 5 21.13038912851431 6.198138851151686 0
55 1 6 27.915205372006213 6.124830362124726 0
56 1 7 34.70158675916646 6.2506979227990795 0
57 1 6 41.93871084000097 6.007287670660427 0
58 1 5 48.63937008816882 6.343904567878537 0
59 1 6 55.568440772241296 6.033815649283247 0
60 1 5 62.50064194275146 6.081630262964862 0
61 1 6 69.28626769331636 6.011611764146513 0
62 1 7 76.52376974640896 6.086462067516715 0
63 1 6 83.53406595984586 6.398599042249095 0
64 1 5 90.0971251376027 6.213651321223439 0
65 1 6 97.36673330283547 6.3702063997461345 0
66 1 5 104.20604280057648 6.122478895796946 0
67 1 6 110.87351160332047 6.142763364426208 0
68 1 7 117.85420213063264 6.326228352936595 0
69 1 6 124.76369949196622 6.153914927347395 0
70 1 5 131.85616076057104 6.1680565613440725 0
71 1 6 138.63475514398277 6.241311238114634 0
72 1 5 145.56887720499526 6.277782967851249 0
73 1 6 152.62769850663577 6.216907445398263 0
74 1 7 159.60429439471872 6.214902709429081 0
75 1 6 166.66803536865106 6.357503273611214 0
76 1 3 -3.2372001419003618 8.212926710959454 0
77 1 5 3.668268021738 8.134615357640227 0
78 1 5 10.575422778384535 8.003988918156258 0
79 1 5 17.40215717256723 8.326056541739334 0
80 1 5 24.299936831673573 8.209382760469383 0
81 1 7 31.21866235472341 8.138776587662814 0
82 1 7 38.339766049063016 8.045138764075576 0
83 1 5 45.34117491976002 8.367233781012455 0
84 1 5 52.33673492772119 8.133869799876528 0
85 1 5 59.23153292759869 8.319079415500353 0
86 1 5 65.88821566861316 8.358545566829852 0
87 1 7 72.79062183329175 8.338637671198539 0
88 1 7 79.8354338741731 8.131696996742969 0
89 1 5 86.67600247807853 8.09988299414055 0
90 1 5 93.63216244648288 8.059068311075194 0
91 1 5 100.74772828737756 8.220115944600836 0
92 1 5 107.53779485320949 8.240214624105555 0
93 1 7 114.68572840974488 8.001333313335913 0
94 1 7 121.50841928919301 8.3981853391141 0
95 1 5 128.40437374682472 8.04021739878779 0
96 1 5 135.24860906540647 8.186131781853943 0
97 1 5 142.25453788812916 8.002574255914862 0
98 1 5 149.31448056900808 8.343488248806207 0
99 1 7 156.07889800833698 8.360889564371103 0
100 1 7 162.98555779870452 8.125952838610797 0
101 1 3 -3.2582909525574633 12.113600548175004 0
102 1 5 3.5502548745254323 12.357013984503695 0
103 1 5 10.463806731804759 12.374696362275296 0
104 1 5 17.674097027546367 12.006467928788458 0
105 1 5 24.5018284806467 12.305286231920425 0
106 1 7 31.24042646442927 12.005373894695841 0
107 1 7 38.254152412972246 12.04528053585077 0
108 1 5 45.18592018679251 12.393137227641041 0
109 1 5 52.06077113697031 12.254016172578256 0
110 1 5 59.28953218731219 12.337333494259152 0
111 1 5 65.88129679251958 12.27637030002313 0
112 1 7 73.01501774901611 12.396409705180618 0
113 1 7 79.91139073278374 12.07741446806343 0
114 1 5 86.93521033986312 12.285550550889848 0
115 1 5 93.8865768150468 12.155460164960056 0
116 1 5 100.63466696857814 12.396759673189658 0
117 1 5 107.39459591899154 12.228134532554554 0
118 1 7 114.36685233410566 12.335108134375943 0
119 1 7 121.49523032074323 12.130054336128959 0
120 1 5 128.48507689801235 12.269598227960627 0
121 1 5 135.18782146110001 12.235145386789881 0
122 1 5 142.2031176828638 12.340750498987466 0
123 1 5 149.27391052262254 12.130768076903365 0
124 1 7 155.9890157768926 12.291429786420403 0
125 1 7 162.88927260381791 12.347105162776561 0
126 1 6 0.31577728240769753 14.115947642732012 0
127 1 5 7.252267463729476 14.352716135018595 0
128 1 6 13.920718232470927 14.179125644678455 0
129 1 5 20.94663781473862 14.343096777798666 0
130 1 6 27.742041733072767 14.37205248141216 0
131 1 7 34.78997704383109 14.166858551480754 0
132 1 6 41.96275844888813 14.19270929568218 0
133 1 5 48.63918152506351 14.3711457577461 0
134 1 6 55.43917149116126 14.135969890506146 0
135 1 5 62.36422840333344 14.047312798162626 0
136 1 6 69.34177180784573 14.068438079233896 0
137 1 7 76.49229302282323 14.366943910664576 0
138 1 6 83.4286037547522 14.286360328464157 0
139 1 5 90.33183483408753 14.101320540477111 0
140 1 6 97.11508031804422 14.048316941797403 0
141 1 5 104.0381237018306 14.394042182991035 0
142 1 6 110.95938560906755 14.38628100472411 0
143 1 7 117.95096100819008 14.384314857159877 0
144 1 6 124.87365824666406 14.341814924963538 0
145 1 5 131.76526521861612 14.073912681224872 0
146 1 6 138.9541859669793 14.092858848158253 0
147 1 5 145.85386449389728 14.385396495335284 0
148 1 6 152.52308644802727 14.08640190088133 0
149 1 7 159.41818421707586 14.326336618729698 0
150 1 6 166.40668831498348 14.07447862691259 0
151 1 5 0.1817907243339065 18.265620766979925 0
152 1 6 7.0791014584172585 18.135027076134143 0
153 1 7 13.950614357092768 18.244863976078946 0
154 1 6 21.134450338560946 18.097775640684066 0
155 1 5 27.97727904919183 18.33504204093799 0
156 1 6 34.64485054625556 18.23767375953157 0
157 1 5 41.59925351926021 18.186084216669965 0
158 1 6 48.72546898873043 18.3465065671143 0
159 1 7 55.51095300778531 18.076952446036632 0
160 1 6 62.62291287335789 18.173463449882288 0
161 1 5 69.63856864526527 18.264173351248502 0
162 1 6 76.36710394307217 18.234435318905575 0
163 1 5 83.39908213154607 18.307591186943107 0
164 1 6 90.34176105158478 18.387457191185014 0
165 1 7 97.15344391941595 18.36849744481402 0
166 1 6 104.24514364862324 18.35607172728041 0
167 1 5 110.9468988438608 18.176640884378823 0
168 1 6 118.03367920614944 18.11822044936345 0
169 1 5 125.03163883997557 18.140419848086367 0
170 1 6 131.83690094783958 18.149933456867284 0
171 1 7 138.91378024841865 18.017381883678908 0
172 1 6 145.79937319648346 18.323266347211405 0
173 1 5 152.6865776956152 18.104355513917707 0
174 1 6 159.3587108447383 18.39510677722088 0
175 1 5 166.61838573989928 18.08713820527734 0
176 1 2 -3.1796664166437383 20.01316159318728 0
177 1 5 3.6845125824939045 20.069759456301405 0
178 1 7 10.618896546547457 20.368918169383907 0
179 1 7 17.46315390266761 20.1013532299515 0
180 1 5 24.25058807147576 20.32054574074672 0
181 1 5 31.44811932415331 20.397431549084942 0
182 1 5 38.246869210911335 20.061278685521042 0
183 1 5 45.39477728547251 20.25590719526311 0
184 1 7 52.30060331697676 20.10569472181729 0
185 1 7 59.1814961752276 20.31292995728071 0
186 1 5 66.04521632677435 20.019035405081446 0
187 1 5 72.76496663401564 20.104668805085037 0
188 1 5 80.04820528616062 20.211814687249486 0
189 1 5 86.76851052762703 20.33321361799135 0
190 1 7 93.67700270343866 20.235785024248887 0
191 1 7 100.79156256553122 20.042271246918006 0
192 1 5 107.39505213394844 20.088096035428237 0
193 1 5 114.59620529877628 20.212770146431986 0
194 1 5 121.49291256650663 20.012009071754445 0
195 1 5 128.3956464933877 20.207671261348647 0
196 1 7 135.1849919080769 20.137907315981593 0
197 1 7 142.06134628934237 20.31629421238098 0
198 1 5 149.0527173986067 20.127602478877463 0
199 1 5 155.99038710157026 20.346501599609343 0
200 1 5 162.98807294703238 20.10793073509075 0
201 1 2 -3.3554825273132773 24.357670239187108 0
202 1 5 3.654602458482191 24.152416462166972 0
203 1 7 10.463082018474715 24.09628457061603 0
204 1 7 17.381683130884117 24.394264579179104 0
205 1 5 24.260238654141624 24.317111562122967 0
206 1 5 31.327026615582447 24.292140406491548 0
207 1 5 38.21551655884893 24.213323605329112 0
208 1 5 45.39419230749177 24.17712410010562 0
209 1 7 52.178176450953416 24.37339046474206 0
210 1 7 58.92735476907969 24.111997263474287 0
211 1 5 65.9807656371229 24.050852195206414 0
212 1 5 72.83617095290396 24.372688834106416 0
213 1 5 80.0684887030254 24.16212212884451 0
214 1 5 86.71567888875832 24.1727447553899 0
215 1 7 93.80275184861516 24.087148110862763 0
216 1 7 100.59651110008689 24.107669047006286 0
217 1 5 107.4013835203603 24.367809569704608 0
218 1 5 114.48568515062054 24.28022480629115 0
219 1 5 121.37059116797614 24.05808725980757 0
220 1 5 128.5466299588934 24.12768148841135 0
221 1 7 135.11134130747837 24.121379291427637 0
222 1 7 142.25128099388604 24.204454247127835 0
223 1 5 148.99263567605374 24.075260823144454 0
224 1 5 156.16907213954505 24.334150010852106 0
225 1 5 163.0448841775383 24.296062586408066 0
226 1 5 0.38091235117190325 26.339605248646706 0
227 1 6 7.284047436371706 26.126189486915393 0
228 1 7 13.911540506453582 26.10758793611319 0
229 1 6 20.966179874573523 26.353006441375005 0
230 1 5 27.929894330932363 26.328000322455562 0
231 1 6 34.88662465629489 26.31759172135315 0
232 1 5 41.59734487391332 26.392215263494553 0
233 1 6 48.795102441893135 26.37431878686784 0
234 1 7 55.518788581857955 26.34518149499608 0
235 1 6 62.56535340016063 26.058624323346343 0
236 1 5 69.66226747404544 26.20266506960047 0
237 1 6 76.39081589007283 26.077976407440275 0
238 1 5 83.53031069462763 26.284589839130852 0
239 1 6 90.29953318310251 26.226714039594242 0
240 1 7 97.24519965192704 26.16215214355819 0
241 1 6 104.2626446156702 26.033391893401337 0
242 1 5 111.10302019990594 26.172445431529013 0
243 1 6 118.05402214120727 26.082977698739416 0
244 1 5 124.97977290020737 26.231121486054075 0
245 1 6 131.69894069591487 26.15998214284617 0
246 1 7 138.72988105800502 26.05838756976145 0
247 1 6 145.87005261308002 26.36943134397836 0
248 1 5 152.59584344005853 26.154168698900516 0
249 1 6 159.3561837926826 26.38533347360842 0
250 1 5 166.58265297982567 26.135239445289493 0
251 1 6 0.2151297364395177 30.10217821259064 0
252 1 5 7.188683909854206 30.389937354310504 0
253 1 6 14.25386099454338 30.242374320472734 0
254 1 5 20.890651238139203 30.143788612761952 0
255 1 6 27.971927054634858 30.18019533103094 0
256 1 7 34.930321428985415 30.351530885855453 0
257 1 6 41.9473343549928 30.221359416200517 0
258 1 5 48.833958815448256 30.024946998064284 0
259 1 6 55.578383476412476 30.068129016303256 0
260 1 5 62.35718901307532 30.18426242071909 0
261 1 6 69.42925854870658 30.06365139306986 0
262 1 7 76.28184356015436 30.200460677245456 0
263 1 6 83.21084086564302 30.34072042795422 0
264 1 5 90.36334017980673 30.356528575710968 0
265 1 6 97.08028204516994 30.038279274698766 0
266 1 5 104.05579523947436 30.230836076652967 0
267 1 6 111.00423636560934 30.198458233075346 0
268 1 7 118.0920218772756 30.04190821650346 0
269 1 6 124.83795745395486 30.160140044790644 0
270 1 5 131.9773984768333 30.078170465929446 0
271 1 6 138.71182822898186 30.10224835350413 0
272 1 5 145.56760175353259 30.299618234813334 0
273 1 6 152.79508216840117 30.012349616471234 0
274 1 7 159.59639330508915 30.292442611785425 0
275 1 6 166.28041690010872 30.086301805857456 0
276 1 3 -3.1745876629872187 32.16137587238646 0
277 1 5 3.621831400994913 32.37663068160017 0
278 1 5 10.619417470730252 32.2310457102389 0
279 1 5 17.678190001252695 32.07213621054586 0
280 1 5 24.484233421659702 32.341643757422524 0
281 1 7 31.19812723896292 32.197009903583094 0
282 1 7 38.25193693567112 32.24110608266207 0
283 1 5 45.05260874693583 32.28478500532399 0
284 1 5 52.08329854320004 32.20534621435511 0
285 1 5 59.2175818304401 32.372269081918745 0
286 1 5 66.15597808857011 32.338907483677254 0
287 1 7 72.8273499583891 32.115837974850656 0
288 1 7 79.73569166052931 32.25400194891722 0
289 1 5 86.86048541591478 32.33289429954454 0
290 1 5 93.85083957935417 32.2575212752961 0
291 1 5 100.53781063103693 32.187015276200555 0
292 1 5 107.70691206048 32.26470312055568 0
293 1 7 114.33298835305635 32.15603789061902 0
294 1 7 121.28101261913146 32.38001754947877 0
295 1 5 128.56152036514547 32.04362432688137 0
296 1 5 135.22035315071415 32.13340622647435 0
297 1 5 142.22468588366078 32.278082004989855 0
298 1 5 149.33270400993848 32.380419069068026 0
299 1 7 155.98987065766715 32.38327924177065 0
300 1 7 162.97625635856662 32.0827500000578 0
301 1 3 -3.373515237801751 36.12584832428306 0
302 1 5 3.7709420998222174 36.009489584942905 0
303 1 5 10.41759164874881 36.10921374690778 0
304 1 5 17.492214950419516 36.22139316780994 0
305 1 5 24.281232440348397 36.271550891266045 0
306 1 7 31.30894383798422 36.14000728752383 0
307 1 7 38.168860816510346 36.129753004850656 0
308 1 5 45.17958797907242 36.17522488670669 0
309 1 5 52.2385260416058 36.296247431190935 0
310 1 5 59.06119339340702 36.005573841067225 0
311 1 5 65.8826279517456 36.08596662656903 0
312 1 7 72.82093204411383 36.21647949766132 0
313 1 7 80.05518211552693 36.13808822082683 0
314 1 5 86.9987503150297 36.38899654655564 0
315 1 5 93.75840263007704 36.02480276986923 0
316 1 5 100.81560079743647 36.17806914674756 0
317 1 5 107.73178236446398 36.2738128268411 0
318 1 7 114.41666325442968 36.30635851246491 0
319 1 7 121.44065735442037 36.385089555257125 0
320 1 5 128.3137058107778 36.16777459992675 0
321 1 5 135.33447647270847 36.218761016053655 0
322 1 5 142.08465506811353 36.00463745628712 0
323 1 5 149.28502661637478 36.301308300396826 0
324 1 7 156.13468884528012 36.16522015825488 0
325 1 7 162.88965182873943 36.26896381074905 0
326 1 6 0.3538473889966825 38.223863642323344 0
327 1 5 7.019857272816693 38.000734845603475 0
328 1 6 13.89252886782717 38.32727939652709 0
329 1 5 20.916741753519023 38.38179584971838 0
330 1 6 27.987868400717733 38.164277309719964 0
331 1 7 34.97926220346624 38.08994577558377 0
332 1 6 41.84711688304584 38.022231990061435 0
333 1 5 48.59278325791257 38.36840142816105 0
334 1 6 55.558193500953536 38.089615890601564 0
335 1 5 62.63452700182927 38.34083871965257 0
336 1 6 69.30420439236055 38.0331909951438 0
337 1 7 76.32963304646 38.388090742785415 0
338 1 6 83.46282643702847 38.21520274725156 0
339 1 5 90.11967004446333 38.215879839497916 0
340 1 6 97.24934746116806 38.24679618904051 0
341 1 5 104.08593684710367 38.19645714261218 0
342 1 6 111.03622288810129 38.04223392395239 0
343 1 7 118.01707621737054 38.18711883848079 0
344 1 6 125.0674490107361 38.317474614162116 0
345 1 5 131.89694654910627 38.19902307369774 0
346 1 6 138.81240027221156 38.18315415133291 0
347 1 5 145.86977363815393 38.2453437318567 0
348 1 6 152.45747405618616 38.204087090155944 0
349 1 7 159.40547850986928 38.336252414510746 0
350 1 6 166.56829224608654 38.321406657814165 0
351 1 5 0.17827867812199907 42.261535907247094 0
352 1 6 7.049180074559485 42.22094278889566 0
353 1 7 13.945726406314972 42.120248969836865 0
354 1 6 21.03607246155552 42.002378878857655 0
355 1 5 27.87606872165543 42.29225329506647 0
356 1 6 34.95472197250901 42.14424790055291 0
357 1 5 41.80600820538999 42.126512042736216 0
358 1 6 48.888933857603135 42.30499955440578 0
359 1 7 55.670134462181124 42.3963562113819 0
360 1 6 62.511805708131824 42.06990047541789 0
361 1 5 69.56265527726045 42.18310397633955 0
362 1 6 76.5195928856818 42.394877996144416 0
363 1 5 83.46205225433454 42.001290651685125 0
364 1 6 90.13558872263059 42.39686505477931 0
365 1 7 97.21140598980166 42.318408594905556 0
366 1 6 104.03566940086486 42.30107553229569 0
367 1 5 110.96887237621742 42.24225939771692 0
368 1 6 118.10033318726207 42.13763037012094 0
369 1 5 124.83507192433999 42.26306347463219 0
370 1 6 131.65748453667914 42.27614692364383 0
371 1 7 138.68070068469362 42.19441537298682 0
372 1 6 145.7138866356883 42.12220343412613 0
373 1 5 152.67796363707242 42.09791079244285 0
374 1 6 159.64972829618617 42.30908705393397 0
375 1 5 166.48826792274318 42.00361695456257 0
376 1 2 -3.1330855513201827 44.358316006272794 0
377 1 5 3.7886658956377777 44.22340205250504 0
378 1 7 10.72179879997638 44.03735218264725 0
379 1 7 17.55759326696561 44.167487581261085 0
380 1 5 24.532793084922446 44.098102604811224 0
381 1 5 31.263444412907557 44.13361651892782 0
382 1 5 38.12986351924801 44.18270259855351 0
383 1 5 45.044810985562144 44.28716775619036 0
384 1 7 52.32356356534697 44.076414118891144 0
385 1 7 58.913714587521824 44.251223633116176 0
386 1 5 65.99619393365658 44.16675023838321 0
387 1 5 72.78665351964172 44.06842128525942 0
388 1 5 79.99815643231008 44.30168145205965 0
389 1 5 86.80714870924886 44.36951491438198 0
390 1 7 93.82588871800297 44.06676326470495 0
391 1 7 100.49577353827323 44.17546908978117 0
392 1 5 107.52194651681648 44.309069359890536 0
393 1 5 114.4970433314186 44.350694162884814 0
394 1 5 121.32961274107183 44.01208655828822 0
395 1 5 128.40766744981786 44.39689262209195 0
396 1 7 135.24783251981174 44.06481860875913 0
397 1 7 142.24535647825985 44.01110060117333 0
398 1 5 148.95925676955235 44.20614820318182 0
399 1 5 155.93473584144735 44.170363339509706 0
400 1 5 162.8338784012614 44.07168456729509 0
401 1 2 -3.1126419979092352 48.18890178312241 0
402 1 5 3.6016011431331174 48.30843787890619 0
403 1 7 10.687252474410714 48.14061754836729 0
404 1 7 17.541565248511972 48.22524875682226 0
405 1 5 24.28883245670858 48.346722973518936 0
406 1 5 31.44828774729715 48.147915426409334 0
407 1 5 38.288407059081344 48.27440431327073 0
408 1 5 45.31692636387617 48.04550314421036 0
409 1 7 52.259148550766255 48.15484320882906 0
410 1 7 59.127340720271775 48.0218401485179 0
411 1 5 66.04795061867561 48.22426938938061 0
412 1 5 72.96844653294727 48.06637631832252 0
413 1 5 79.72037820962919 48.25778384404942 0
414 1 5 86.96651955641782 48.22982464232845 0
415 1 7 93.75998672552288 48.22399753165784 0
416 1 7 100.78864323353727 48.32338902612743 0
417 1 5 107.67809619180585 48.214001136144894 0
418 1 5 114.64754970716746 48.13212908406574 0
419 1 5 121.63498844914214 48.29798987785423 0
420 1 5 128.35764009723664 48.06068416806334 0
421 1 7 135.22725718448882 48.12786621750013 0
422 1 7 142.3658237804237 48.13611194811177 0
423 1 5 149.17684113381486 48.2359095010644 0
424 1 5 156.0564592521639 48.00668090746679 0
425 1 5 162.92252386738346 48.34215674778788 0
426 1 5 0.39016166521041035 50.161820183199595 0
427 1 6 7.176281283385364 50.02957779885742 0
428 1 7 14.119623507701435 50.358587664186786 0
429 1 6 21.07113403061153 50.12279759617901 0
430 1 5 28.028852443419133 50.29305223614056 0
431 1 6 34.91631730632756 50.373281055416484 0
432 1 5 41.9399859972384 50.311803621073295 0
433 1 6 48.88898412408875 50.145841975137046 0
434 1 7 55.45087943314106 50.205669857945914 0
435 1 6 62.468990616904314 50.32672639548132 0
436 1 5 69.45349980590525 50.29598145525775 0
437 1 6 76.21502594058224 50.261363296367435 0
438 1 5 83.372302651988 50.19322299912791 0
439 1 6 90.12468372862213 50.04532632896314 0
440 1 7 97.12854332414717 50.282802251172036 0
441 1 6 104.07574108756394 50.380634553674795 0
442 1 5 110.88001354423632 50.24496097576328 0
443 1 6 117.88798293230137 50.34822283801204 0
444 1 5 124.75499227131138 50.306134400799074 0
445 1 6 132.01727287981052 50.30504673368638 0
446 1 7 138.7876551618812 50.38880394311032 0
447 1 6 145.6664521783018 50.342315535572624 0
448 1 5 152.64303257581602 50.01002641952792 0
449 1 6 159.40552833048864 50.33729344253047 0
450 1 5 166.35970383606508 50.35895455532766 0
451 1 6 0.08009696131014842 54.33356599535045 0
452 1 5 7.124707609548809 54.35815678298095 0
453 1 6 13.957757622836432 54.38697303882629 0
454 1 5 20.988597629878615 54.229793831120844 0
455 1 6 28.04590195892072 54.13089012021557 0
456 1 7 34.786496945208 54.21286014175879 0
457 1 6 41.843691556189 54.126037212115676 0
458 1 5 48.69709220992054 54.10045582166183 0
459 1 6 55.49191186885949 54.27621187813494 0
460 1 5 62.37230068682319 54.071387351311415 0
461 1 6 69.5059463180224 54.26184686937968 0
462 1 7 76.43070889530956 54.09377338930263 0
463 1 6 83.3851841268776 54.230838792395595 0
464 1 5 90.35073909769045 54.32022715438146 0
465 1 6 97.21051003537941 54.04187906371939 0
466 1 5 104.01856577699002 54.017460371323374 0
467 1 6 111.14616024992164 54.02583885382006 0
468 1 7 117.91383407351042 54.209161792611226 0
469 1 6 124.94097812711418 54.355075463379414 0
470 1 5 131.87125608733555 54.007184467286514 0
471 1 6 138.94106779838188 54.28710639994142 0
472 1 5 145.73017333751753 54.36534374450974 0
473 1 6 152.62239422968378 54.123008509438165 0
474 1 7 159.35435288802708 54.18343674025833 0
475 1 6 166.46574889595823 54.37369748661641 0
476 1 3 -3.4067822707128936 56.32722692871445 0
477 1 5 3.6098922745619593 56.103407871929264 0
478 1 5 10.463459283179727 56.35650714163174 0
479 1 5 17.57910181407651 56.262832141951016 0
480 1 5 24.508224807071517 56.050032760742766 0
481 1 7 31.234663658986452 56.00831759723849 0
482 1 7 38.32723633315419 56.25774583747984 0
483 1 5 45.110148210929324 56.28128167342764 0
484 1 5 52.28670322758884 56.32354463666133 0
485 1 5 59.02446453447638 56.37838433151121 0
486 1 5 66.14086505593289 56.10175503479462 0
487 1 7 72.95520494287274 56.01104828973877 0
488 1 7 80.03509526873286 56.28604575598827 0
489 1 5 86.70993594188964 56.07989265070303 0
490 1 5 93.8195967254344 56.33011350430229 0
491 1 5 100.63003226750662 56.02026069668245 0
492 1 5 107.51850881963263 56.15724262175451 0
493 1 7 114.42439156862943 56.38297920404882 0
494 1 7 121.32700559601521 56.32200359739389 0
495 1 5 128.3875678087224 56.15619290959299 0
496 1 5 135.4607723885484 56.120471084770884 0
497 1 5 142.15852920070597 56.10760074149373 0
498 1 5 149.35541738753852 56.321205963883614 0
499 1 7 156.08476087164374 56.30517279078523 0
500 1 7 163.04027126088354 56.04791015092986 0
501 1 3 -3.371011579254201 60.36391370495961 0
502 1 5 3.714953224426367 60.183968886545124 0
503 1 5 10.503500920710113 60.33185600155259 0
504 1 5 17.545000549363962 60.37414181464415 0
505 1 5 24.276381954043096 60.01443272704026 0
506 1 7 31.395806187824387 60.044338885971484 0
507 1 7 38.25862490783358 60.096203297026086 0
508 1 5 45.128033940977744 60.22622958190323 0
509 1 5 52.0756782171952 60.096627916414946 0
510 1 5 59.227935392687336 60.12901679648769 0
511 1 5 65.90025583468152 60.17609418817009 0
512 1 7 72.9249693139563 60.10742277396851 0
513 1 7 79.70928295115154 60.133410096812185 0
514 1 5 86.66288608526733 60.131798273283636 0
515 1 5 93.74853155170821 60.20222426430423 0
516 1 5 100.76019125028348 60.28964226886864 0
517 1 5 107.65838835635468 60.07841684255158 0
518 1 7 114.65843100287066 60.09611449598411 0
519 1 7 121.53520065624147 60.0320687120625 0
520 1 5 128.3724948767277 60.056614943056445 0
521 1 5 135.25999445242624 60.07452250079575 0
522 1 5 142.17790881081768 60.07884134003536 0
523 1 5 149.33435084704672 60.11116545019871 0
524 1 7 156.0351135074917 60.01517373064004 0
525 1 7 162.85761923899952 60.09924959806531 0
526 1 6 0.03697736676925607 62.26521147471765 0
527 1 5 7.129269208199897 62.078183703454584 0
528 1 6 14.037021492226351 62.24056461683983 0
529 1 5 20.82624049817006 62.21604932412645 0
530 1 6 28.02690334549404 62.23540089409135 0
531 1 7 34.86953154532589 62.224003554206625 0
532 1 6 41.75294069487285 62.36997982902426 0
533 1 5 48.741604915295866 62.22429371075616 0
534 1 6 55.579869592144874 62.117155284916585 0
535 1 5 62.706125945784365 62.20798507131345 0
536 1 6 69.39854160386872 62.11470608494914 0
537 1 7 76.38498964550347 62.29580447040762 0
538 1 6 83.5309411740452 62.10374678406549 0
539 1 5 90.41889651674043 62.30172906406742 0
540 1 6 97.28593544802702 62.31444044430876 0
541 1 5 104.16195095967923 62.313838639017995 0
542 1 6 111.13674210513597 62.29608664609071 0
543 1 7 117.95958073804573 62.16140289400439 0
544 1 6 124.85438403177035 62.0913540662084 0
545 1 5 131.6518574943096 62.15330120638058 0
546 1 6 138.75241622109485 62.34977224031061 0
547 1 5 145.7463540839451 62.2898846500744 0
548 1 6 152.4335367326135 62.34619542719391 0
549 1 7 159.47153469557043 62.161904834060884 0
550 1 6 166.58928589119003 62.16865196324989 0
551 1 5 0.3413541963710243 66.00024487143153 0
552 1 6 7.116980273004613 66.10066614207481 0
553 1 7 14.16773495445516 66.23590082815532 0
554 1 6 21.051722825031028 66.04612410827528 0
555 1 5 27.85034636720458 66.21744745338525 0
556 1 6 34.78296630449985 66.05479117315967 0
557 1 5 41.57542566331825 66.12312746383886 0
558 1 6 48.83236189550901 66.00409348967979 0
559 1 7 55.57687220447246 66.13402493951223 0
560 1 6 62.46543298906538 66.10521364402742 0
561 1 5 69.39820248737072 66.36110125245564 0
562 1 6 76.43007620509638 66.25252176059735 0
563 1 5 83.21038329781933 66.13449442429065 0
564 1 6 90.14607231385006 66.26326182094165 0
565 1 7 97.00538821415887 66.22201840348217 0
566 1 6 104.0012161471869 66.1702912871726 0
567 1 5 110.92254937604086 66.25969209362563 0
568 1 6 117.82950674574046 66.11286709029957 0
569 1 5 124.83853604738007 66.24328845582987 0
570 1 6 131.88263658194592 66.25281845455402 0
571 1 7 138.8193833779175 66.0367826790471 0
572 1 6 145.5917903407242 66.16153390869356 0
573 1 5 152.81027644759885 66.13923056020906 0
574 1 6 159.4845909584181 66.038764444354 0
575 1 5 166.33027739670493 66.11084508616291 0
576 1 2 -3.106368243035108 68.00819879969251 0
577 1 5 3.4791802481382703 68.05068150435217 0
578 1 7 10.39724238373505 68.29556639211954 0
579 1 7 17.547480247556948 68.10942627991442 0
580 1 5 24.37944931306335 68.15189744146011 0
581 1 5 31.484980086073076 68.03299478857485 0
582 1 5 38.32112739783075 68.06786662227663 0
583 1 5 45.06869193528886 68.17481575974182 0
584 1 7 52.25876881392806 68.18188236690517 0
585 1 7 59.05655183044885 68.1423388917605 0
586 1 5 65.85430270917641 68.11976317894184 0
587 1 5 72.81967467460228 68.03033810685005 0
588 1 5 80.07003262780006 68.38566263480813 0
589 1 5 86.84003230838451 68.08510617977403 0
590 1 7 93.65757861560549 68.03436108636615 0
591 1 7 100.61593222485082 68.16296350113647 0
592 1 5 107.59562809291121 68.11080543149762 0
593 1 5 114.46866841673531 68.14932416214344 0
594 1 5 121.35553937469585 68.37688614898515 0
595 1 5 128.36113082716454 68.26085924051658 0
596 1 7 135.10541764559875 68.17166610600061 0
597 1 7 142.2363135107823 68.23319533793449 0
598 1 5 149.03957515387157 68.09940971508182 0
599 1 5 156.18023157299723 68.31651866717472 0
600 1 5 163.04467738233157 68.29605470955526 0