
14309 atoms
14896 bonds
16659 angles
7 atom types
2 bond types
4 angle types

-5.680607966083864 171.52447279080386 xlo xhi
-2.0 148.0 ylo yhi
-4 4 zlo zhi


Masses

1 0.00024255127658566624
2 0.0005071526692245748
3 0.0004851025531713325
4 0.000749703945810241
5 0.0002646013926389086
6 0.0004851025531713325
7 0.0005292027852778172

Pair Coeffs

1 0.40509979849834776 0.44544935907016964 0.5
2 0.40509979849834776 0.44544935907016964 0.5
3 0.40509979849834776 0.44544935907016964 0.5
4 0.40509979849834776 0.44544935907016964 0.5
5 0.40509979849834776 0.44544935907016964 0.5
6 0.40509979849834776 0.44544935907016964 0.5
7 0.40509979849834776 0.44544935907016964 0.5

Bond Coeffs

1 97.02051063426649 0.5
2 105.84055705556344 0.5

Angle Coeffs

1 7.6104339675144095 180
2 9.880413144902251 180
3 8.59812350170964 120
4 7.6104339675144095 120

Atoms

1 1 1 -3.1424951398406056 0.16478324916882836 0
2 1 2 3.766053594989534 0.3971699632088431 0
3 1 2 10.730624745850102 0.28832173998000765 0
4 1 3 17.337181224513085 0.37466677887671634 0
5 1 2 24.613042756722447 0.12342958760633578 0
6 1 2 31.47559385936885 0.38805552436508123 0
7 1 3 38.37483094094568 0.06187951484421683 0
8 1 2 45.40478897121005 0.2901707606231105 0
9 1 2 52.13708308228821 0.19752852661096976 0
10 1 3 58.965963096517 0.3654194188576285 0
11 1 2 66.1255515873521 0.282258828031372 0
12 1 2 72.76596445385363 0.2884183807203412 0
13 1 3 80.0460156566824 0.005051829280844045 0
14 1 2 86.75368173820462 0.28960498942708207 0
15 1 2 93.80371801161074 0.03676043425915312 0
16 1 3 100.72928065038445 0.3763321552011527 0
17 1 2 107.49790867302856 0.3722714311851532 0
18 1 2 114.56997220526668 0.012623566335416793 0
19 1 3 121.3219594421549 0.2103420678963268 0
20 1 2 128.4598697788855 0.03086239887267026 0
21 1 2 135.29705193252147 0.17083006727486755 0
22 1 3 142.2716366967398 0.08576976230497446 0
23 1 2 149.3004547186901 0.16801620394651293 0
24 1 2 156.1995856782925 0.23479515864329797 0
25 1 3 163.17039574831986 0.028525334033798713 0
26 1 4 0.35477036654974325 2.163653675455451 0
27 1 4 7.073521976025654 2.1975581251460303 0
28 1 4 14.225188500516072 2.103963515277967 0
29 1 4 20.804728520341087 2.2296544737042407 0
30 1 4 28.085353900031397 2.199659288813596 0
31 1 4 34.6654711886242 2.018542748132325 0
32 1 4 41.86777313336943 2.083763401049954 0
33 1 4 48.53973141620891 2.354796150325687 0
34 1 4 55.53945561961923 2.021924303246216 0
35 1 4 62.6257595186944 2.0408275081076215 0
36 1 4 69.4561995274858 2.377085266062956 0
37 1 4 76.25741239009956 2.3183534902136618 0
38 1 4 83.37055950191365 2.318871679442305 0
39 1 4 90.45979554468114 2.0085365821969647 0
40 1 4 97.09044818604477 2.2414445790629216 0
41 1 4 104.23431679797179 2.0887767462120745 0
42 1 4 110.86447753286662 2.3380969685968167 0
43 1 4 117.94791283940619 2.2160406388769234 0
44 1 4 124.91149246642577 2.3773265868228526 0
45 1 4 131.92275642783068 2.24469511479468 0
46 1 4 138.7740566764388 2.010488764750617 0
47 1 4 145.75098743261736 2.3766496873750262 0
48 1 4 152.56866160754097 2.091463393069802 0
49 1 4 159.65817589061095 2.0147900079877585 0
50 1 4 166.6222543896712 2.1673198122768214 0
51 1 4 0.31652110929003147 6.2890491180496255 0
52 1 4 7.151124196451622 6.341938400034441 0
53 1 4 13.919988397513814 6.107894393164158 0
54 1 4 21.08679784811448 6.378014915145634 0
55 1 4 28.030724609044338 6.138594088255914 0
56 1 4 34.97660987454731 6.0014591942720115 0
57 1 4 41.63162733539378 6.039535576217332 0
58 1 4 48.60258103155055 6.390966152966344 0
59 1 4 55.51325043176337 6.121758201537793 0
60 1 4 62.72045125928658 6.354060269130351 0
61 1 4 69.35531434696236 6.083451662981724 0
62 1 4 76.55300129786279 6.371162737862011 0
63 1 4 83.53789145999342 6.362387027214158 0
64 1 4 90.30669056389941 6.364812965860403 0
65 1 4 97.06758785576028 6.114349078126441 0
66 1 4 104.02421426449745 6.304654550173011 0
67 1 4 111.02312396000933 6.375392301147512 0
68 1 4 117.8334738516727 6.17649215963762 0
69 1 4 124.97162828183929 6.267540598631045 0
70 1 4 131.87818645137182 6.196802539450044 0
71 1 4 138.7455082129495 6.399504985858711 0
72 1 4 145.53561915689477 6.385769319643979 0
73 1 4 152.69473199133398 6.212943373849038 0
74 1 4 159.50044962618355 6.271846381535382 0
75 1 4 166.60169021215862 6.2391919685987896 0
76 1 2 -3.2400099433693916 8.077285319813397 0
77 1 4 3.4901907231453793 8.104126098698085 0
78 1 4 10.644665106926144 8.229819090421628 0
79 1 4 17.61769382046449 8.262227531154895 0
80 1 4 24.500741383317138 8.309060663709163 0
81 1 4 31.521455130891486 8.001939812370205 0
82 1 4 38.40552756989181 8.309413793987563 0
83 1 4 45.22185785152651 8.284987238910162 0
84 1 4 51.99618923957356 8.196586236685928 0
85 1 4 59.27772321976024 8.301601235966304 0
86 1 4 65.97094042670258 8.192223956938927 0
87 1 4 73.13501285362993 8.090542031372594 0
88 1 4 79.80302114655979 8.03712229676222 0
89 1 4 86.6212762148938 8.083432535628047 0
90 1 4 93.89838087358777 8.368397520754119 0
91 1 4 100.73646597067989 8.118669672035375 0
92 1 4 107.41160213083496 8.14431771590202 0
93 1 4 114.67551661470799 8.160277611482005 0
94 1 4 121.54489243604935 8.352363015979153 0
95 1 4 128.2877301932229 8.05369526991938 0
96 1 4 135.38505702587383 8.320307855307592 0
97 1 4 142.41161161350212 8.30519339759934 0
98 1 4 149.078287260165 8.219783160305118 0
99 1 4 156.08095018120977 8.13492192016328 0
100 1 4 163.03761199201318 8.310248010179858 0
101 1 2 -3.1910423897458986 12.367318672586892 0
102 1 4 3.6232898884686904 12.372653824911216 0
103 1 4 10.465457941082551 12.038259963745007 0
104 1 4 17.378258478837477 12.380183281297509 0
105 1 4 24.295153193122264 12.360120374773954 0
106 1 4 31.33748670135444 12.030036146868168 0
107 1 4 38.41105193813783 12.148502167000705 0
108 1 4 45.052520551951694 12.282171101465824 0
109 1 4 52.24619678177425 12.159324316250986 0
110 1 4 58.985232152995124 12.215672085582542 0
111 1 4 65.92276093989521 12.309870931009101 0
112 1 4 73.10420009513791 12.078770693265444 0
113 1 4 79.77424947105169 12.107020576422288 0
114 1 4 86.91369362478152 12.312410167808652 0
115 1 4 93.62644377378628 12.12230366093082 0
116 1 4 100.81342890291091 12.052503328401352 0
117 1 4 107.75242800676358 12.329621741778162 0
118 1 4 114.3235876951476 12.002902987522491 0
119 1 4 121.24495284974313 12.344091142060142 0
120 1 4 128.21889673690526 12.29849206247797 0
121 1 4 135.32063597149238 12.067584146966212 0
122 1 4 142.23959943711603 12.178476309935508 0
123 1 4 149.19521679277744 12.16882275986809 0
124 1 4 156.0617001014802 12.121981238277629 0
125 1 4 162.83224249119502 12.116198723554094 0
126 1 4 0.29737977745460004 14.152348535599971 0
127 1 4 7.090103377506863 14.339226074068115 0
128 1 4 13.903091607467053 14.17163829122248 0
129 1 4 21.18272183052168 14.351158339559166 0
130 1 4 27.988263878869567 14.292299626621709 0
131 1 4 34.888868092484934 14.248827756688788 0
132 1 4 41.64147102893996 14.391588052845922 0
133 1 4 48.83983344154264 14.053202506854358 0
134 1 4 55.78139391805081 14.31473477047002 0
135 1 4 62.68634437347546 14.24140755478898 0
136 1 4 69.53864884168875 14.28994864710495 0
137 1 4 76.52106420061332 14.284902963271588 0
138 1 4 83.43706470295874 14.120893019067415 0
139 1 4 90.08684694584004 14.09186449304034 0
140 1 4 97.27036667742166 14.10658153113737 0
141 1 4 104.16484288899011 14.00453343336826 0
142 1 4 111.17766691972768 14.041155071225973 0
143 1 4 117.8976007976457 14.21867432757748 0
144 1 4 124.9164089123885 14.219557992054492 0
145 1 4 131.8824856783636 14.314673582269192 0
146 1 4 138.60047071705785 14.373225815509594 0
147 1 4 145.7007095110287 14.354491081448387 0
148 1 4 152.46335040549945 14.199227434423932 0
149 1 4 159.37620283590095 14.335321987962528 0
150 1 4 166.499470238465 14.221118498693993 0
151 1 4 0.21519172511199908 18.125012446942648 0
152 1 4 6.956671421489562 18.01477315703466 0
153 1 4 14.079460009482267 18.360035675093123 0
154 1 4 20.992759950370438 18.07724485474107 0
155 1 4 27.90840235723117 18.382266180824754 0
156 1 4 34.88457415565158 18.238195833862765 0
157 1 4 41.7665002887792 18.24833420813126 0
158 1 4 48.867742614268614 18.342060441845884 0
159 1 4 55.766337912824724 18.158285548579048 0
160 1 4 62.457951323194415 18.258322164121186 0
161 1 4 69.29450787747253 18.119345006501497 0
162 1 4 76.46203702699897 18.207125929439854 0
163 1 4 83.17997031190554 18.18967759952884 0
164 1 4 90.38742439644754 18.05163228082339 0
165 1 4 97.32493287710912 18.24036785594595 0
166 1 4 104.11675930055593 18.329147047646767 0
167 1 4 111.13597461786553 18.378576207807747 0
168 1 4 118.07018905572376 18.18836171078165 0
169 1 4 124.85375942710212 18.179260661827204 0
170 1 4 131.97086816150264 18.283446698420438 0
171 1 4 138.71817484596286 18.20372535019775 0
172 1 4 145.5838368853843 18.01136342053096 0
173 1 4 152.4245577420771 18.141006902313734 0
174 1 4 159.54836206758657 18.363398449819464 0
175 1 4 166.3470151131838 18.014767898538413 0
176 1 2 -3.0730445412446374 20.00460149283368 0
177 1 4 3.7580024535010956 20.354047084712327 0
178 1 4 10.425856896306469 20.072853254383972 0
179 1 4 17.38759673392332 20.17589612939233 0
180 1 4 24.482827011882723 20.007296173875364 0
181 1 4 31.42494336223955 20.346160466710025 0
182 1 4 38.503051807380984 20.030608603329757 0
183 1 4 45.315691969415646 20.377413934170765 0
184 1 4 52.27017153869815 20.34876878254399 0
185 1 4 59.195845726648244 20.109102817811657 0
186 1 4 66.05572606129725 20.284611453982254 0
187 1 4 72.79101030281755 20.325815993897784 0
188 1 4 79.95982137224287 20.221465030485977 0
189 1 4 86.99919092274565 20.080243778693237 0
190 1 4 93.86177616216897 20.022695193051998 0
191 1 4 100.66427307013355 20.170255322978036 0
192 1 4 107.48440017628845 20.052211631756858 0
193 1 4 114.38627156738724 20.17097172493412 0
194 1 4 121.24611856029033 20.206745897876704 0
195 1 4 128.2471445740925 20.095525399774626 0
196 1 4 135.28595159973892 20.335705387081266 0
197 1 4 142.089198026118 20.399390938877783 0
198 1 4 149.1186017362258 20.27926977706715 0
199 1 4 155.93842818320022 20.163517143142496 0
200 1 4 162.92866017911422 20.091901344153552 0
201 1 2 -3.092494335261793 24.119473430415272 0
202 1 4 3.4908306774260502 24.136843997333003 0
203 1 4 10.486123491168305 24.352393282123856 0
204 1 4 17.709894998595317 24.045606478655003 0
205 1 4 24.260489968381876 24.32520214698491 0
206 1 4 31.195901186748557 24.316072475175094 0
207 1 4 38.291095091514414 24.3948996973949 0
208 1 4 45.21967642033088 24.067441390804042 0
209 1 4 51.97207734765557 24.211158033297806 0
210 1 4 58.91855375563534 24.002815920494125 0
211 1 4 66.03221051111845 24.171447544056946 0
212 1 4 72.96937661961668 24.220343654794423 0
213 1 4 79.71723383312036 24.049532718768404 0
214 1 4 86.7301561997984 24.258492615116573 0
215 1 4 93.85014890195974 24.3888414931875 0
216 1 4 100.66961117207362 24.257741758701194 0
217 1 4 107.7402967830449 24.293727009258596 0
218 1 4 114.5311501183137 24.162108428207393 0
219 1 4 121.32500775933622 24.160866454140844 0
220 1 4 128.30236125745486 24.38168545286323 0
221 1 4 135.38958158867024 24.156941488666334 0
222 1 4 142.4214725773302 24.002583469062426 0
223 1 4 149.2453806354119 24.127838154465852 0
224 1 4 156.21662240760855 24.049483162843476 0
225 1 4 163.0065827907344 24.104465242644906 0
226 1 4 0.2493643515535865 26.369768673266666 0
227 1 4 7.142390317219769 26.00720773587974 0
228 1 4 13.907715789566854 26.268875274852647 0
229 1 4 20.786616555399302 26.369330107714447 0
230 1 4 27.92485672807516 26.210918027030797 0
231 1 4 34.99970676524176 26.08546429034492 0
232 1 4 41.95130260341094 26.34342965430979 0
233 1 4 48.737586459673025 26.31582947399431 0
234 1 4 55.788472055442554 26.32450812628998 0
235 1 4 62.37553091725501 26.353068178603035 0
236 1 4 69.28941636498472 26.175782986473514 0
237 1 4 76.53692994417746 26.311253871998577 0
238 1 4 83.42741756171532 26.282275417886247 0
239 1 4 90.28345496039249 26.390022540559162 0
240 1 4 97.11826141773417 26.170222894418437 0
241 1 4 103.97107972511965 26.145335094001425 0
242 1 4 110.87676697300236 26.167698970114905 0
243 1 4 117.91407119409818 26.14583470088332 0
244 1 4 124.80248821511314 26.38598608775886 0
245 1 4 131.76703567322673 26.160787686474094 0
246 1 4 138.7078708028088 26.3376668748192 0
247 1 4 145.51919262708347 26.366169814435956 0
248 1 4 152.43720469126725 26.004265381173994 0
249 1 4 159.72287859249937 26.306439998538703 0
250 1 4 166.62699781698706 26.283646553542972 0
251 1 4 0.17642340967708514 30.117858638988686 0
252 1 4 7.283957710154998 30.007383572820913 0
253 1 4 13.890849251142651 30.34626968834718 0
254 1 4 21.057964414669158 30.015999641625584 0
255 1 4 27.954579972405316 30.051358759370782 0
256 1 4 34.806385199646584 30.07085404182285 0
257 1 4 41.80623034515892 30.203449070342828 0
258 1 4 48.66429279585791 30.35932738120758 0
259 1 4 55.78059295237902 30.00983274107563 0
260 1 4 62.403607764856254 30.309828724528415 0
261 1 4 69.4676263294697 30.02006938371878 0
262 1 4 76.4374845609743 30.306017197814977 0
263 1 4 83.2716362960353 30.166111498383557 0
264 1 4 90.23241242123164 30.241626638413898 0
265 1 4 97.06354039658656 30.088947116588663 0
266 1 4 104.05276634715463 30.161943116508883 0
267 1 4 110.86779265663253 30.35217903106451 0
268 1 4 117.8915691189465 30.09397841282387 0
269 1 4 124.8097137171704 30.158661658651923 0
270 1 4 131.80372557734736 30.252756060580264 0
271 1 4 138.89205388846702 30.033882840026436 0
272 1 4 145.73634908244588 30.385837262936988 0
273 1 4 152.49603953310933 30.125014182473915 0
274 1 4 159.60976529033132 30.14728992759899 0
275 1 4 166.4324104419487 30.203726854873665 0
276 1 2 -3.171752769144147 32.20110544615066 0
277 1 4 3.607629478820434 32.39206459922894 0
278 1 4 10.621257776853923 32.2287398819986 0
279 1 4 17.428803510909677 32.104347282127186 0
280 1 4 24.271241406784767 32.19580260426519 0
281 1 4 31.343956017088026 32.343458563620004 0
282 1 4 38.38294551176907 32.38146050447792 0
283 1 4 45.11999419234632 32.35393400493934 0
284 1 4 52.31041586603677 32.312514908353556 0
285 1 4 59.15816756044462 32.24337525263745 0
286 1 4 65.90929190127626 32.247471356842176 0
287 1 4 72.9472090021443 32.124772898332935 0
288 1 4 79.81361139272141 32.25983617267132 0
289 1 4 86.616741501927 32.009620882859025 0
290 1 4 93.8048863633419 32.373106142303996 0
291 1 4 100.52525688801265 32.170092162523034 0
292 1 4 107.70338407875029 32.293392756698445 0
293 1 4 114.33850817342429 32.114741539559226 0
294 1 4 121.61179692945629 32.29459586769935 0
295 1 4 128.42151860447078 32.24502269248246 0
296 1 4 135.11672411739403 32.030834962000625 0
297 1 4 142.42121947313402 32.27301063475182 0
298 1 4 149.3196400499369 32.15041962360319 0
299 1 4 156.2617578931148 32.30809748165346 0
300 1 4 162.83584901689883 32.0503757223341 0
301 1 2 -3.390760024327259 36.21138770167246 0
302 1 4 3.543339386761162 36.06044718951842 0
303 1 4 10.698946332570632 36.359015967195354 0
304 1 4 17.437004224154727 36.04663882020498 0
305 1 4 24.611328287247353 36.337206255544835 0
306 1 4 31.413111115114994 36.30728861565949 0
307 1 4 38.411228289117304 36.362151572297684 0
308 1 4 45.42301452001089 36.07812174856899 0
309 1 4 52.16608769614738 36.20759852329482 0
310 1 4 59.12313262391646 36.16157793674889 0
311 1 4 66.1759647803631 36.34877287882427 0
312 1 4 72.75976890883533 36.03435912816963 0
313 1 4 80.07070806116457 36.33523058024002 0
314 1 4 86.84136079831907 36.34138731280342 0
315 1 4 93.53404652024172 36.31271017470415 0
316 1 4 100.79538825102193 36.012862700664485 0
317 1 4 107.70228223072928 36.047668952645964 0
318 1 4 114.63800570773458 36.101331960810384 0
319 1 4 121.40916635452867 36.1467662025126 0
320 1 4 128.5108060783963 36.188933326234995 0
321 1 4 135.4997619653057 36.28249115241917 0
322 1 4 142.35329575767958 36.29341851270228 0
323 1 4 149.1306835562128 36.134854445662185 0
324 1 4 155.88624024245925 36.216625593740204 0
325 1 4 163.18361852200104 36.004874845499295 0
326 1 4 0.2129835453916923 38.022324224895506 0
327 1 4 7.053282105931431 38.27971013225303 0
328 1 4 14.225957632376641 38.17106749774561 0
329 1 4 20.850447884925966 38.08394749469571 0
330 1 4 27.800572203349386 38.042898502057355 0
331 1 4 34.693590175416645 38.292627794062774 0
332 1 4 41.61698622646851 38.141512508641355 0
333 1 4 48.75008234192496 38.31643085871824 0
334 1 4 55.52432778251654 38.379515202084114 0
335 1 4 62.627336918890435 38.238044345858775 0
336 1 4 69.53143651121701 38.27298599679973 0
337 1 4 76.24258571244289 38.11526129003708 0
338 1 4 83.52224322315845 38.17123810736974 0
339 1 4 90.24581113225854 38.124050217923454 0
340 1 4 97.02183326448123 38.327889873217465 0
341 1 4 104.12444365953996 38.38525314347409 0
342 1 4 111.20751351082394 38.27508448316676 0
343 1 4 118.01242630828003 38.06710665777073 0
344 1 4 124.88633108289098 38.31941053564034 0
345 1 4 131.6881245325962 38.17608447405585 0
346 1 4 138.83426673574618 38.167217915793174 0
347 1 4 145.84741588121148 38.139685867977434 0
348 1 4 152.75022124445005 38.21324233096735 0
349 1 4 159.42135170302794 38.33328708462779 0
350 1 4 166.28225599037202 38.26848020700693 0
351 1 4 0.10102547208751163 42.14041206359057 0
352 1 4 7.100986629521298 42.35752241620799 0
353 1 4 14.176667462547595 42.27093193045035 0
354 1 4 21.167178000396355 42.36869888044917 0
355 1 4 27.92741385036126 42.2371454554757 0
356 1 4 34.80860643967674 42.28604128079889 0
357 1 4 41.743891840387896 42.253648917426965 0
358 1 4 48.538430338073866 42.232700783151195 0
359 1 4 55.4313158302567 42.24819894878098 0
360 1 4 62.49735114477195 42.05571879752055 0
361 1 4 69.39794729201743 42.13119916228571 0
362 1 4 76.27122363665738 42.39204690017725 0
363 1 4 83.51114027886587 42.37499312351879 0
364 1 4 90.15397447150929 42.312304216286314 0
365 1 4 97.20502703020585 42.190455863507594 0
366 1 4 103.98660532174515 42.26143429703763 0
367 1 4 110.95117006225288 42.16560006856384 0
368 1 4 117.95156598206898 42.242234566194 0
369 1 4 124.89528768449134 42.24786282519625 0
370 1 4 131.97207259768058 42.266669355284364 0
371 1 4 138.72601701502424 42.302994118458926 0
372 1 4 145.50565779063177 42.22392052206414 0
373 1 4 152.7807576534438 42.2460749441092 0
374 1 4 159.4606047234098 42.131919569208364 0
375 1 4 166.52867302436488 42.06284724500174 0
376 1 2 -3.3197783799436955 44.31568207176115 0
377 1 4 3.5682545460893453 44.29235349170305 0
378 1 4 10.749122382573791 44.11589045178326 0
379 1 4 17.572163632681278 44.010140651329884 0
380 1 4 24.54827339667379 44.30956247157554 0
381 1 4 31.475937173651907 44.34805689647544 0
382 1 4 38.22057786738874 44.383836986177826 0
383 1 4 45.15335170043602 44.04515597134616 0
384 1 4 52.055854496358506 44.33090815703991 0
385 1 4 59.13432076812075 44.2336611449741 0
386 1 4 66.07725999445074 44.20530762548479 0
387 1 4 72.926997041558 44.26156419499132 0
388 1 4 79.81191903496162 44.01426489718834 0
389 1 4 86.96638962747667 44.00201847828006 0
390 1 4 93.79567489997935 44.36953714652566 0
391 1 4 100.8561846166729 44.26478547580123 0
392 1 4 107.62132584287058 44.03225690429109 0
393 1 4 114.49968190816155 44.27182003900332 0
394 1 4 121.32990217240004 44.22409106158794 0
395 1 4 128.31108949175731 44.09511657481758 0
396 1 4 135.2979825029339 44.29954101312313 0
397 1 4 142.34019011830569 44.137394889328796 0
398 1 4 149.24029103359624 44.02656413278688 0
399 1 4 156.171287526938 44.25839825780561 0
400 1 4 163.03058049539217 44.32139730554982 0
401 1 2 -3.4078539801532397 48.018407235943044 0
402 1 4 3.7027270284516858 48.24443085124032 0
403 1 4 10.43977046265199 48.34885143574493 0
404 1 4 17.552857317387154 48.30659833009199 0
405 1 4 24.619065517567275 48.073952162516775 0
406 1 4 31.25406651606507 48.15033854128163 0
407 1 4 38.25611937085469 48.2830597122082 0
408 1 4 45.11311438268466 48.36726279389926 0
409 1 4 51.98297334605985 48.07827515489013 0
410 1 4 59.076000769937686 48.33469322882592 0
411 1 4 66.11512697469826 48.15585684601571 0
412 1 4 73.07392163729088 48.30801833954481 0
413 1 4 79.98611995031199 48.352724199790444 0
414 1 4 87.0020421848443 48.15577370407703 0
415 1 4 93.91926644423222 48.310976354609565 0
416 1 4 100.6351796827859 48.056128679064976 0
417 1 4 107.62637933702138 48.13078586969468 0
418 1 4 114.47525415398955 48.264734543541316 0
419 1 4 121.25811257759592 48.09964825716373 0
420 1 4 128.1771964337748 48.13084648834292 0
421 1 4 135.43641737840528 48.32749856229428 0
422 1 4 142.314257053504 48.262906195050256 0
423 1 4 149.25822450946995 48.03030073876803 0
424 1 4 156.08487014039758 48.37864430064615 0
425 1 4 162.88561158277025 48.18581743325953 0
426 1 4 0.14814716733374317 50.35441157285005 0
427 1 4 7.286566520242028 50.3889139357942 0
428 1 4 14.202660469764192 50.18728853472469 0
429 1 4 20.91878468024202 50.02950615814833 0
430 1 4 27.75578803422107 50.22088696876405 0
431 1 4 34.96817437900791 50.175515767665345 0
432 1 4 41.76227248384054 50.32186590016251 0
433 1 4 48.83443919662539 50.28896206758384 0
434 1 4 55.71770594898177 50.14311734254429 0
435 1 4 62.570789941991805 50.23435646915459 0
436 1 4 69.60600614620544 50.23210893444288 0
437 1 4 76.55215240475493 50.225064329910275 0
438 1 4 83.26125480117355 50.223203526548325 0
439 1 4 90.299798553653 50.21057330644043 0
440 1 4 97.15661100725191 50.30656749849828 0
441 1 4 104.28255639191285 50.159267810962604 0
442 1 4 110.89388468829377 50.191160543638404 0
443 1 4 117.80225862471438 50.004068915956374 0
444 1 4 124.85703507005786 50.300928154583 0
445 1 4 132.01364771318956 50.18677895476983 0
446 1 4 138.8143530679547 50.051488418060025 0
447 1 4 145.69860085178593 50.162607839661966 0
448 1 4 152.43566766596047 50.16372287354426 0
449 1 4 159.43531419647485 50.30102526906418 0
450 1 4 166.5552695726364 50.04267720534439 0
451 1 4 0.0879451336503335 54.294054479019934 0
452 1 4 7.0837473998248015 54.14819173342545 0
453 1 4 13.924204202256119 54.261396033249156 0
454 1 4 21.172309936953553 54.31591675637248 0
455 1 4 28.02687385210002 54.053892424575025 0
456 1 4 34.758484851570806 54.29284002541718 0
457 1 4 41.77190854701746 54.195572072969924 0
458 1 4 48.81678371323577 54.34667482768302 0
459 1 4 55.63035153146343 54.03087764539618 0
460 1 4 62.49392766894832 54.009626629147135 0
461 1 4 69.40991264805592 54.26799759698574 0
462 1 4 76.34600195981822 54.037455218734436 0
463 1 4 83.29966021004903 54.013945557174985 0
464 1 4 90.39901655452981 54.1126030004291 0
465 1 4 97.25789367204253 54.00694344144944 0
466 1 4 104.11504382967118 54.26037051395503 0
467 1 4 111.05714848787278 54.137830463164164 0
468 1 4 117.89840545267424 54.32867033100652 0
469 1 4 124.99153814138234 54.17664957466782 0
470 1 4 131.65227430174016 54.05222047047576 0
471 1 4 138.91432723167628 54.196886265015216 0
472 1 4 145.6566551850869 54.27955764728487 0
473 1 4 152.68921422027552 54.26668093517165 0
474 1 4 159.35851338946512 54.398913205418154 0
475 1 4 166.53850688186495 54.07179203524999 0
476 1 2 -3.375071561049938 56.14127664568059 0
477 1 4 3.780014537081881 56.07972297718598 0
478 1 4 10.48847125492927 56.08067505349314 0
479 1 4 17.526759122562606 56.24178447491565 0
480 1 4 24.481920402329365 56.11066825261496 0
481 1 4 31.301409942257347 56.00428025328803 0
482 1 4 38.4028711227991 56.28894701890639 0
483 1 4 45.10443865617415 56.06015826914024 0
484 1 4 52.15499869764021 56.38520342997392 0
485 1 4 59.08627415357716 56.19506704432467 0
486 1 4 65.93272515705478 56.15122432031165 0
487 1 4 72.86995773287903 56.32250352518287 0
488 1 4 79.96927883805952 56.08409171309562 0
489 1 4 86.93043928199815 56.11993047715985 0
490 1 4 93.79797900401898 56.28598252792731 0
491 1 4 100.71728188136206 56.36982924543339 0
492 1 4 107.58022859426137 56.16750531916843 0
493 1 4 114.42348291394376 56.04348469732348 0
494 1 4 121.41264376456294 56.099251502104146 0
495 1 4 128.2869257434739 56.094675371535274 0
496 1 4 135.46281795862146 56.28059897946159 0
497 1 4 142.19874788294044 56.141116104439746 0
498 1 4 149.08857288998996 56.24676765267745 0
499 1 4 155.98960209122822 56.17966779948226 0
500 1 4 163.15249962366752 56.28889655516138 0
501 1 2 -3.430384487682031 60.147704207740475 0
502 1 4 3.653244211528704 60.399548645667146 0
503 1 4 10.702255980425512 60.25763504058908 0
504 1 4 17.390301734363554 60.319438947041604 0
505 1 4 24.42129703609737 60.29984950106161 0
506 1 4 31.360607004279426 60.15249981477545 0
507 1 4 38.18718180636 60.04088031222909 0
508 1 4 45.270298330307256 60.101794669911726 0
509 1 4 52.35512762445522 60.0915184953641 0
510 1 4 59.12365070576708 60.15717471972763 0
511 1 4 66.09186703874981 60.34124634099164 0
512 1 4 73.0868470752766 60.37179430107166 0
513 1 4 80.00625503656131 60.338555550228804 0
514 1 4 86.8981957876329 60.09579470467529 0
515 1 4 93.53749376725783 60.27577048049398 0
516 1 4 100.81224886540102 60.16704408701124 0
517 1 4 107.41721287526218 60.16791738017024 0
518 1 4 114.61624669376927 60.18282205610576 0
519 1 4 121.41659516740937 60.36376860740338 0
520 1 4 128.31291680691638 60.02398054393464 0
521 1 4 135.34602470980488 60.2883693989793 0
522 1 4 142.21850130802397 60.27151405610471 0
523 1 4 149.311118974001 60.28187253131812 0
524 1 4 156.17333160112614 60.122866094718056 0
525 1 4 163.15605159842275 60.36146604189544 0
526 1 4 0.33222096440363225 62.36822544963528 0
527 1 4 7.121877532105523 62.1528616449229 0
528 1 4 14.230480529948842 62.30248447126155 0
529 1 4 20.98927654234538 62.396883662905964 0
530 1 4 27.736720344140465 62.39310943413258 0
531 1 4 34.858437152312725 62.33809523935144 0
532 1 4 41.86860415962293 62.1236920308372 0
533 1 4 48.789893422657855 62.030465533792814 0
534 1 4 55.62732492603933 62.15505298007508 0
535 1 4 62.44774017498468 62.36235055280592 0
536 1 4 69.49803799073555 62.02602599103838 0
537 1 4 76.37918053793362 62.22210059203634 0
538 1 4 83.2196629362214 62.28682045739702 0
539 1 4 90.14706147244293 62.142804477738416 0
540 1 4 97.15103589665414 62.34084571549234 0
541 1 4 104.14473176286934 62.3309586658651 0
542 1 4 110.98047024668779 62.19900577334649 0
543 1 4 118.04435975326719 62.24960729632018 0
544 1 4 124.99156347801677 62.39379055069764 0
545 1 4 131.6441086238386 62.05637921713449 0
546 1 4 138.73476964018656 62.108246715667114 0
547 1 4 145.58330303922523 62.38715893410809 0
548 1 4 152.6871570578968 62.358229444202294 0
549 1 4 159.40615573573893 62.343804774614846 0
550 1 4 166.33018507508666 62.267812812292284 0
551 1 4 0.3482504569323188 66.1730188880895 0
552 1 4 7.170393897290129 66.16032498669519 0
553 1 4 14.0376014985677 66.19634762996508 0
554 1 4 21.1360376490171 66.17706670962694 0
555 1 4 27.885734290517338 66.19204444809563 0
556 1 4 34.716627016360555 66.27404830156841 0
557 1 4 41.95594923178224 66.21817316205725 0
558 1 4 48.84373975941611 66.01519158460609 0
559 1 4 55.46580717916571 66.05091275669369 0
560 1 4 62.54953993811441 66.35154343431067 0
561 1 4 69.29237735205118 66.3422796837705 0
562 1 4 76.32031151963412 66.05889798352645 0
563 1 4 83.3083306291237 66.2433910332073 0
564 1 4 90.1694755226575 66.27062498214578 0
565 1 4 97.27924374455802 66.02592166676125 0
566 1 4 104.21819937530657 66.3111135839733 0
567 1 4 110.95506438720363 66.38197750431458 0
568 1 4 118.16225125175458 66.17869058103743 0
569 1 4 124.99821471833694 66.27440477595708 0
570 1 4 131.82666835255327 66.30166644040101 0
571 1 4 138.81213014795406 66.05403392027554 0
572 1 4 145.80854278820593 66.04906257607094 0
573 1 4 152.537578187451 66.19354929633685 0
574 1 4 159.53409751522406 66.00042690154346 0
575 1 4 166.30899337787147 66.17086142001261 0
576 1 2 -3.2325205395191188 68.01264399641506 0
577 1 4 3.588394114509091 68.2998515224048 0
578 1 4 10.661079172019194 68.12325799032376 0
579 1 4 17.51755819986572 68.35001672139023 0
580 1 4 24.321836464181832 68.17346028740168 0
581 1 4 31.41713252646421 68.2491298489004 0
582 1 4 38.33859637696547 68.11211247761766 0
583 1 4 45.260869820198025 68.1551211989267 0
584 1 4 52.30543619064325 68.05237025102663 0
585 1 4 59.116594106601724 68.20317027209185 0
586 1 4 66.02524536397242 68.01735380298742 0
587 1 4 72.7591771063272 68.2209371873762 0
588 1 4 79.93451290018008 68.16749382959863 0
589 1 4 86.80797899393147 68.00527186416383 0
590 1 4 93.74831254325386 68.38948208928291 0
591 1 4 100.75833419671983 68.08951220180641 0
592 1 4 107.62126057426819 68.15975852588636 0
593 1 4 114.38224402210624 68.06336358705805 0
594 1 4 121.3815638431531 68.04481240161232 0
595 1 4 128.4949821004139 68.30792416281338 0
596 1 4 135.1988689221887 68.29096907677219 0
597 1 4 142.38843611490122 68.3694469070283 0
598 1 4 149.09897997492382 68.0538009134203 0
599 1 4 155.93866357507318 68.06514268441181 0
600 1 4 162.98148137909274 68.35874608872285 0
601 1 2 -3.3847875868262873 72.17899521448702 0
602 1 4 3.7303294786408348 72.1563502296861 0
603 1 4 10.72658902348342 72.11679035441695 0
604 1 4 17.424886767526477 72.28347283470181 0
605 1 4 24.484065925752493 72.09318858374208 0
606 1 4 31.410032164656037 72.23376712010263 0
607 1 4 38.497947069500576 72.0663306427725 0
608 1 4 45.327897463648476 72.29518306996938 0
609 1 4 52.11472627913102 72.27481747090293 0
610 1 4 59.283516987295805 72.01265047743942 0