
14309 atoms
14896 bonds
16659 angles
20 atom types
6 bond types
16 angle types

-5.680607966083864 171.52447279080386 xlo xhi
-2.0 148.0 ylo yhi
-4 4 zlo zhi


Masses

1 0.0002300043233895374
2 0.0005750108084738435
3 0.0003450064850843061
4 0.0006325118893212279
5 0.0005175097276264591
6 0.0006037613488975356
7 0.0004600086467790748
8 0.0008050151318633809
9 0.0009200172935581495
10 0.0006900129701686122
11 0.0008625162127107651
12 0.000805015131863381
13 0.0004312581063553826
14 0.00017250324254215304
15 0.0004600086467790748
16 0.0006900129701686122
17 0.0002300043233895374
18 0.0005750108084738435
19 0.0005175097276264591
20 0.0003450064850843061

Pair Coeffs

1 0.40509979849834776 0.44544935907016964 0.5
2 0.40509979849834776 0.44544935907016964 0.5
3 0.40509979849834776 0.44544935907016964 0.5
4 0.40509979849834776 0.44544935907016964 0.5
5 0.40509979849834776 0.44544935907016964 0.5
6 0.40509979849834776 0.44544935907016964 0.5
7 0.40509979849834776 0.44544935907016964 0.5
8 0.40509979849834776 0.44544935907016964 0.5
9 0.40509979849834776 0.44544935907016964 0.5
10 0.40509979849834776 0.44544935907016964 0.5
11 0.40509979849834776 0.44544935907016964 0.5
12 0.40509979849834776 0.44544935907016964 0.5
13 0.40509979849834776 0.44544935907016964 0.5
14 0.40509979849834776 0.44544935907016964 0.5
15 0.40509979849834776 0.44544935907016964 0.5
16 0.40509979849834776 0.44544935907016964 0.5
17 0.40509979849834776 0.44544935907016964 0.5
18 0.40509979849834776 0.44544935907016964 0.5
19 0.40509979849834776 0.44544935907016964 0.5
20 0.40509979849834776 0.44544935907016964 0.5

Bond Coeffs

1 92.00172935581496 0.5
2 138.00259403372243 0.5
3 46.00086467790748 0.5
4 115.00216169476869 0.5
5 103.50194552529182 0.5
6 69.00129701686122 0.5

Angle Coeffs

1 6.489432605235699 180
2 21.901835042670484 180
3 0.8111790756544623 180
4 12.674673057100973 180
5 9.239836658626608 180
6 2.7377293803338105 180
7 10.012267448077933 120
8 1.4420961344968222 120
9 16.05706381427455 120
10 8.583905562481084 120
11 12.996693322024242 120
12 2.7377293803338105 120
13 6.489432605235699 120
14 12.674673057100973 120
15 4.22392532965788 120
16 9.239836658626608 120

Atoms

1 1 1 -3.1102330599673866 0.19203530354316423 0
2 1 2 3.755106071694848 0.25173997771924483 0
3 1 3 10.783176297882395 0.06738274595626192 0
4 1 4 17.470846275414182 0.36896733151537675 0
5 1 5 24.517723143530688 0.2374098608791424 0
6 1 6 31.457206223972094 0.2699270985318147 0
7 1 3 38.153346178752486 0.2271967274904062 0
8 1 3 45.311002100220236 0.08904340561046409 0
9 1 6 52.05657368671781 0.2880692658406883 0
10 1 5 58.976009244028624 0.26511996385322417 0
11 1 4 65.85760563277425 0.15016193985077378 0
12 1 3 72.79775112811609 0.1410281498539365 0
13 1 2 79.85994848380668 0.1324133623731504 0
14 1 7 86.6599955048341 0.1931971562075615 0
15 1 7 93.61143840382633 0.16896664010411505 0
16 1 7 100.71533144252301 0.021230469954445354 0
17 1 7 107.72221168406155 0.3067906354123474 0
18 1 7 114.33516682227987 0.060352938801747996 0
19 1 7 121.24896986553112 0.24475122676080066 0
20 1 2 128.30426174740145 0.05417196031901122 0
21 1 3 135.23130960896657 0.34558146369362513 0
22 1 4 142.22600396915982 0.15575002352224981 0
23 1 5 149.1826339267661 0.35022111843926734 0
24 1 6 156.01153496497201 0.36175453351952397 0
25 1 3 162.82950715116706 0.2801910885355112 0
26 1 8 0.15403006263247063 2.065286513603431 0
27 1 2 7.056805409113944 2.086405720706118 0
28 1 8 14.142317063414431 2.3339451623220615 0
29 1 8 21.134722230258088 2.1846610791622294 0
30 1 9 28.075609790704128 2.3322323046870133 0
31 1 10 34.98747882779477 2.247187977556632 0
32 1 5 41.66289414029926 2.3560341125928397 0
33 1 10 48.605104251199236 2.2043662398054167 0
34 1 9 55.579479208224534 2.308328760708422 0
35 1 8 62.4375680292643 2.0741878784630545 0
36 1 8 69.42787280953506 2.222336979522352 0
37 1 2 76.22916812495545 2.1987095139657074 0
38 1 8 83.49439390161048 2.155903241901533 0
39 1 2 90.22070853683871 2.078271584133523 0
40 1 2 97.36707498687257 2.139413523360775 0
41 1 2 104.1271209909202 2.0408571944577316 0
42 1 2 111.0868545541394 2.142087560149715 0
43 1 2 117.84400359951995 2.241249918069015 0
44 1 8 124.83171896051809 2.178127290512605 0
45 1 2 131.7361321744262 2.2558995863373155 0
46 1 8 138.80416078712258 2.1584122142477637 0
47 1 8 145.62925135547474 2.398814722165589 0
48 1 9 152.64926937351288 2.195684182942529 0
49 1 10 159.43991585136507 2.330856651793497 0
50 1 5 166.33176486006627 2.003020802427595 0
51 1 2 0.3779629638536815 6.245608056746211 0
52 1 8 7.118381223228923 6.009689075605305 0
53 1 2 14.007024201198053 6.289745779954113 0
54 1 9 21.030744477673636 6.382311750864229 0
55 1 8 28.001596900392773 6.247514202115231 0
56 1 11 34.66310473523302 6.148389871959707 0
57 1 10 41.75915118846051 6.179595159877512 0
58 1 11 48.66462713969159 6.088315774937541 0
59 1 8 55.604896747720325 6.308742419322269 0
60 1 9 62.563801847163894 6.32863739655668 0
61 1 2 69.3923798316392 6.135294260438048 0
62 1 8 76.45709023200385 6.1450304240259 0
63 1 2 83.38542554333735 6.194794764869859 0
64 1 2 90.31152692726896 6.251269319398532 0
65 1 2 97.2222182757958 6.042005144317955 0
66 1 2 104.08219408053351 6.098191163437063 0
67 1 2 111.20131070414085 6.360182030648686 0
68 1 2 117.96959774084927 6.002845919416992 0
69 1 2 124.81300833237513 6.0294540365383105 0
70 1 8 131.84320650015334 6.198191489387773 0
71 1 2 138.72731230948347 6.234783793595067 0
72 1 9 145.73921181784482 6.24630419850384 0
73 1 8 152.75224698840046 6.398518305810112 0
74 1 11 159.63483524002373 6.1007781320591645 0
75 1 10 166.35104045355413 6.103158680351628 0
76 1 3 -3.2259093385463165 8.35352415771206 0
77 1 8 3.834202057115648 8.226469969231008 0
78 1 2 10.445142412663156 8.367501870461448 0
79 1 8 17.517288691365454 8.267922031157696 0
80 1 8 24.594626298841632 8.16751776512604 0
81 1 9 31.48736868393072 8.214270023048508 0
82 1 11 38.40514343785238 8.112074987535646 0
83 1 11 45.07210258938018 8.044625325196744 0
84 1 9 52.289618861174404 8.040803538928532 0
85 1 8 59.16392605541066 8.335297923311769 0
86 1 8 65.91898429027647 8.177572449370924 0
87 1 2 73.1301203780191 8.159869487719172 0
88 1 8 79.8666505151867 8.149993500498484 0
89 1 2 86.61888291962643 8.333899918299872 0
90 1 12 93.79375148751757 8.16986622883332 0
91 1 12 100.6288127437976 8.23105352392954 0
92 1 12 107.48012289432596 8.28900140769994 0
93 1 12 114.58943881503467 8.334577206183297 0
94 1 2 121.25928646915817 8.0254168954598 0
95 1 8 128.20682027319333 8.368988479336885 0
96 1 2 135.2111947849528 8.032613671885915 0
97 1 8 142.35014912917086 8.052154061045023 0
98 1 8 149.184228702078 8.316327669487212 0
99 1 9 156.14092734281613 8.267469177064083 0
100 1 11 162.9483541046459 8.171303288675633 0
101 1 7 -3.3844842103934645 12.06842833960405 0
102 1 2 3.768311438928595 12.286893947444305 0
103 1 8 10.5618252197088 12.235772092927359 0
104 1 2 17.420691567610998 12.025355836128863 0
105 1 9 24.55239076860092 12.314481462345974 0
106 1 8 31.340542888741943 12.306916610817899 0
107 1 9 38.49840396733212 12.26704293811718 0
108 1 9 45.316878491701495 12.197140740418874 0
109 1 8 52.23920468592917 12.056632880982423 0
110 1 9 59.14447752362015 12.169746259158122 0
111 1 2 66.02548944090034 12.324600505680563 0
112 1 8 72.99780491490712 12.325243668894629 0
113 1 2 79.8335333484654 12.069489940785589 0
114 1 8 86.63285586143337 12.28559160388568 0
115 1 9 93.74725840080636 12.00892059287241 0
116 1 9 100.8484822525869 12.256809825097292 0
117 1 9 107.78201149729816 12.073820453052287 0
118 1 9 114.55406676072268 12.111631492031824 0
119 1 8 121.57055268952247 12.04232093448871 0
120 1 2 128.41990439215596 12.154186850496181 0
121 1 8 135.2509335852743 12.363111627719803 0
122 1 2 142.32973513858445 12.299968794500925 0
123 1 9 149.28769086363752 12.028686407930664 0
124 1 8 156.24088798429085 12.265395734577895 0
125 1 9 163.16948317446895 12.091680602049102 0
126 1 2 0.16774537215400162 14.082720068465353 0
127 1 8 7.051665811420743 14.38227303181902 0
128 1 2 14.138144114505547 14.298897717034839 0
129 1 8 21.00419723117928 14.256104737259578 0
130 1 8 27.76322772301169 14.216971147836952 0
131 1 8 34.69470466118265 14.131577546226884 0
132 1 8 41.59366608591222 14.148242050232913 0
133 1 8 48.500492753922096 14.10051659581187 0
134 1 8 55.566089910602535 14.139297297160887 0
135 1 8 62.574753073519325 14.165596107642939 0
136 1 2 69.35483071021162 14.258037062245837 0
137 1 8 76.4392640459796 14.356813278370419 0
138 1 2 83.48860283241899 14.264845020745678 0
139 1 9 90.17661607092171 14.390062598117716 0
140 1 8 97.11219935561556 14.213184782507476 0
141 1 8 104.10821986928836 14.227682909431465 0
142 1 8 111.08636593668288 14.263871590557956 0
143 1 9 117.91898762444765 14.152362755425374 0
144 1 2 124.77643451235498 14.274572002964623 0
145 1 8 131.65650428599818 14.190830733076245 0
146 1 2 138.96077737941192 14.313806399346168 0
147 1 8 145.8423459002212 14.137648385661024 0
148 1 8 152.7847490955296 14.25171745849605 0
149 1 8 159.70668337791926 14.188434281891377 0
150 1 8 166.6187384162109 14.06564224890324 0
151 1 8 0.3483677113606886 18.178669380531456 0
152 1 2 7.114544911256903 18.146487600306255 0
153 1 8 14.245730915451487 18.12500142031489 0
154 1 2 21.12078287094734 18.25470430826673 0
155 1 9 27.95038561791953 18.12500806873786 0
156 1 8 34.65916654575211 18.131777934689236 0
157 1 8 41.60348415405418 18.373425431812045 0
158 1 8 48.65834723951455 18.201949984638816 0
159 1 9 55.65261744409949 18.17769611210085 0
160 1 2 62.36193085771733 18.251064173884743 0
161 1 8 69.68095183505596 18.34075407025118 0
162 1 2 76.35216531293895 18.17785127329791 0
163 1 8 83.33051922739207 18.369160020466982 0
164 1 8 90.24247604790746 18.051458096073226 0
165 1 8 97.35868337155775 18.39823102669989 0
166 1 8 104.32127103989046 18.119114788348387 0
167 1 8 111.15818269413805 18.07455590896875 0
168 1 8 117.89313794675388 18.04440795798779 0
169 1 8 125.05128560398434 18.176961082511184 0
170 1 2 131.7185740459062 18.173625403050252 0
171 1 8 138.61915258206852 18.225166918122685 0
172 1 2 145.5515577286897 18.128229804125148 0
173 1 9 152.68750752483845 18.30238616528221 0
174 1 8 159.51110511419648 18.288615950114693 0
175 1 8 166.53604862089418 18.112470118010155 0
176 1 4 -3.1060166000451988 20.398495020930017 0
177 1 2 3.5845620183985796 20.309622669908492 0
178 1 8 10.635160915371365 20.184446426932478 0
179 1 2 17.528046657673826 20.08951897259081 0
180 1 8 24.445176529315837 20.39906992774413 0
181 1 9 31.517369285800854 20.314555426162055 0
182 1 9 38.202328352974014 20.393294977284615 0
183 1 9 45.421128417562755 20.379469070485033 0
184 1 9 51.96657061274601 20.314999007001678 0
185 1 8 59.057422168333076 20.034469218309418 0
186 1 2 66.03809946891563 20.042892447502087 0
187 1 8 72.94138771993731 20.20457613386377 0
188 1 2 79.8203116507851 20.09625784649542 0
189 1 9 86.97683307363125 20.176058456530708 0
190 1 8 93.54053428397472 20.148468908854547 0
191 1 9 100.59858034929617 20.165366135251535 0
192 1 9 107.71692220001972 20.16659670033204 0
193 1 8 114.69630477170925 20.32982977812421 0
194 1 9 121.45368470721307 20.173078757842063 0
195 1 2 128.41049698507715 20.224028725840885 0
196 1 8 135.3788470768365 20.206138337578235 0
197 1 2 142.2697122009005 20.00242894130336 0
198 1 8 149.0092836370872 20.04586602933336 0
199 1 9 156.02411376827345 20.151465435919818 0
200 1 9 163.10244612550846 20.263601525065774 0
201 1 2 -3.076923523378122 24.26851322164872 0
202 1 8 3.8402911844106757 24.342373834034785 0
203 1 2 10.450816579218158 24.031692726708552 0
204 1 8 17.372987192262883 24.33532400393293 0
205 1 2 24.499123068927574 24.355474640988604 0
206 1 12 31.44431818846947 24.152480527470793 0
207 1 12 38.128353443993596 24.21383184455379 0
208 1 12 45.09922840076233 24.15099787890181 0
209 1 12 52.17061154049304 24.292854962026368 0
210 1 2 59.07507541126754 24.36868392119789 0
211 1 8 65.83332295523864 24.185480255521906 0
212 1 2 73.05266621381963 24.190323659290137 0
213 1 8 80.04892418924186 24.196211353609534 0
214 1 8 86.78397851315702 24.25339475657627 0
215 1 9 93.5949137350279 24.377839205226294 0
216 1 11 100.59020611906355 24.153533442848754 0
217 1 11 107.40672808114587 24.012347010187742 0
218 1 9 114.63693155511233 24.30984174084463 0
219 1 8 121.40914624347593 24.201613263988655 0
220 1 8 128.45110537245873 24.097973395556043 0
221 1 2 135.40635986999283 24.19484645410521 0
222 1 8 142.06761195854546 24.171198326079516 0
223 1 2 149.10183323655133 24.194643071479977 0
224 1 12 156.01260217187843 24.09251719835173 0
225 1 12 163.01068041511346 24.057733795619377 0
226 1 9 0.2004761960094905 26.196530853597633 0
227 1 2 7.047526354912503 26.02064348205189 0
228 1 8 13.961742675513175 26.222074016045546 0
229 1 2 20.895807656713007 26.314223323943594 0
230 1 2 27.806342002237972 26.371726209715458 0
231 1 2 34.65756856479639 26.294155060003373 0
232 1 2 41.82088877555628 26.317342726180442 0
233 1 2 48.5473017472901 26.076732966955444 0
234 1 2 55.71197861151356 26.257735188346775 0
235 1 2 62.45993609893811 26.118314481291307 0
236 1 8 69.6115705237626 26.252331152146635 0
237 1 2 76.46833842640393 26.108524014650698 0
238 1 9 83.30346896212193 26.39630033504804 0
239 1 8 90.11631700099764 26.249861262984442 0
240 1 11 97.0696922437532 26.136232761883996 0
241 1 10 104.12713724532892 26.036646004765608 0
242 1 11 111.03729062911349 26.031962199716524 0
243 1 8 117.97679123966815 26.144091394589463 0
244 1 9 124.75666395101936 26.166092982273224 0
245 1 2 131.9013615478082 26.322638112835754 0
246 1 8 138.7200900982862 26.102592952520023 0
247 1 2 145.51224063587625 26.088694340995527 0
248 1 2 152.68137285127548 26.089863163432387 0
249 1 2 159.59895561617947 26.33126903872213 0
250 1 2 166.2825607272195 26.090431193338013 0
251 1 8 0.027656397974928117 30.287338515628775 0
252 1 8 7.20207198960101 30.317454022628713 0
253 1 2 13.997921678487158 30.178493275558395 0
254 1 8 21.11085906672941 30.078478235975506 0
255 1 2 28.092843139563584 30.233071035722663 0
256 1 2 34.78138061351229 30.25092762830657 0
257 1 2 41.84789307201459 30.30553828016908 0
258 1 2 48.83398954655732 30.021940852456876 0
259 1 2 55.712990921773674 30.01753157275515 0
260 1 8 62.47430341118558 30.148378091673735 0
261 1 2 69.66309335950014 30.31880274066726 0
262 1 8 76.29811085156814 30.281877490531503 0
263 1 8 83.24620656753227 30.058073518662127 0
264 1 9 90.1040797806577 30.1488249545317 0
265 1 10 97.2144552294175 30.21184243443875 0
266 1 5 104.29389569896544 30.222672583454187 0
267 1 10 110.90934991618725 30.179670469812734 0
268 1 9 117.96903551601869 30.293143569056404 0
269 1 8 124.81376288015875 30.0907455549591 0
270 1 8 131.6719244667666 30.237035553560407 0
271 1 2 138.73420279085568 30.23668384267227 0
272 1 8 145.5010395199713 30.31261599714484 0
273 1 2 152.74511058800996 30.13051336342735 0
274 1 2 159.41184205935298 30.313018949090374 0
275 1 2 166.39320040246616 30.08009153502848 0
276 1 5 -3.2044945781145127 32.021812547896324 0
277 1 9 3.5395791835554786 32.37825616769775 0
278 1 2 10.595682250589022 32.33689724983324 0
279 1 8 17.39266684903602 32.08842039425235 0
280 1 12 24.566412227264582 32.07969516245892 0
281 1 12 31.48786296499887 32.23283056971205 0
282 1 12 38.24779199003626 32.05028057107352 0
283 1 12 45.13112869026784 32.27595621173118 0
284 1 12 52.31368045655512 32.17874958987745 0
285 1 12 58.959259240006126 32.35523842930988 0
286 1 8 66.05911295722879 32.232074178033194 0
287 1 2 73.11372343827163 32.05888023020961 0
288 1 9 79.95300533426446 32.11334204861473 0
289 1 8 86.85697726419257 32.37924955198528 0
290 1 11 93.67869319645759 32.33433132132008 0
291 1 5 100.78907913404913 32.07409982327535 0
292 1 5 107.43828374447907 32.1965616308226 0
293 1 11 114.35802741903836 32.0694635110647 0
294 1 8 121.25622610224993 32.07182403065855 0
295 1 9 128.5598717377843 32.28915329042143 0
296 1 2 135.2763443345374 32.01197816999341 0
297 1 8 142.11523320646842 32.33146325692624 0
298 1 12 149.0589597525684 32.135320742134724 0
299 1 12 156.2146664339925 32.2938251872003 0
300 1 12 162.839547167579 32.2596003658882 0
301 1 5 -3.187871591089538 36.14771189953735 0
302 1 9 3.5371006497572632 36.102885856240675 0
303 1 2 10.662532291878984 36.16794593102191 0
304 1 8 17.720356853237973 36.03040546748172 0
305 1 12 24.285791556098516 36.08989315099666 0
306 1 12 31.336379004087224 36.12203556620737 0
307 1 12 38.239648739201904 36.112465327014064 0
308 1 12 45.30249843281861 36.04834879556338 0
309 1 12 52.35548594004973 36.33711146389192 0
310 1 12 59.10149983044268 36.328395871161376 0
311 1 8 66.0678845775363 36.38207513039265 0
312 1 2 73.02375287811576 36.0617706945218 0
313 1 9 79.91334635593633 36.1148581889857 0
314 1 8 86.97961361283399 36.10880868435502 0
315 1 11 93.78405752709419 36.264787307369375 0
316 1 5 100.55323405592186 36.03107636019343 0
317 1 5 107.62338670698976 36.243124420511705 0
318 1 11 114.70916297516749 36.05150810700142 0
319 1 8 121.38233188212578 36.096213019597016 0
320 1 9 128.40945681136228 36.34878764721974 0
321 1 2 135.1391960414992 36.13343318794202 0
322 1 8 142.26084746297528 36.39645783711304 0
323 1 12 149.18080543469534 36.32082580183239 0
324 1 12 156.0335727289733 36.343725120736075 0
325 1 12 163.00624239214758 36.335488139017244 0
326 1 8 0.2562189619147469 38.30364854160228 0
327 1 8 7.141139821078654 38.13529933788145 0
328 1 2 13.899406907778676 38.19083858103352 0
329 1 8 21.1679608620877 38.24703567405687 0
330 1 2 28.006423633393535 38.06145199231712 0
331 1 2 34.895220320012164 38.11403452111425 0
332 1 2 41.90432048123706 38.31561395047901 0
333 1 2 48.87798992320535 38.00110619162456 0
334 1 2 55.50111259432488 38.065750410938755 0
335 1 8 62.5569360704221 38.183069002828724 0
336 1 2 69.56222341008971 38.286640136982506 0
337 1 8 76.60977506037575 38.33705424851417 0
338 1 8 83.45988717847985 38.11731294006459 0
339 1 9 90.38200959897311 38.39865341389375 0
340 1 10 97.08189683858163 38.1536193950302 0
341 1 5 104.14959360370518 38.360030338533655 0
342 1 10 111.0405570095051 38.072984938410194 0
343 1 9 117.82121699573487 38.01697611370698 0
344 1 8 124.9510567803429 38.2216573752941 0
345 1 8 131.8058988103543 38.12403040840526 0
346 1 2 138.7940493453136 38.22663253730289 0
347 1 8 145.7057050146884 38.00789130157638 0
348 1 2 152.63923193779647 38.07946695406757 0
349 1 2 159.42175481257996 38.13110111780108 0
350 1 2 166.30501749014553 38.183165105576016 0
351 1 9 0.008296812365568496 42.007212643062324 0
352 1 2 7.152572156432588 42.01778295018917 0
353 1 8 13.957284841420284 42.04083562752132 0
354 1 2 21.003334604662538 42.32539607456982 0
355 1 2 27.861235737612763 42.28747470436456 0
356 1 2 34.78793298874216 42.0728235272125 0
357 1 2 41.84875926013174 42.16698914265623 0
358 1 2 48.82363092583651 42.300217994454634 0
359 1 2 55.81428238936086 42.10308002638914 0
360 1 2 62.50200607571609 42.11294346564581 0
361 1 8 69.59467688775365 42.17821402531976 0
362 1 2 76.4388644826508 42.31594124712304 0
363 1 9 83.44541959612012 42.16924551778724 0
364 1 8 90.11445218430786 42.05057020834238 0
365 1 11 97.00453376039944 42.11795915570659 0
366 1 10 103.98120677735102 42.29775200543221 0
367 1 11 111.21445482028213 42.03733785045715 0
368 1 8 117.83175701714732 42.374053531295495 0
369 1 9 124.82492203812721 42.38308759241696 0
370 1 2 131.99505061040963 42.29484281420375 0
371 1 8 138.8296648467361 42.234162141679576 0
372 1 2 145.58493254505348 42.381362164455325 0
373 1 2 152.73956684580736 42.0325388503163 0
374 1 2 159.4040355073396 42.36837733104939 0
375 1 2 166.36822541647956 42.23754422929829 0
376 1 2 -3.2458938828235584 44.141708224950435 0
377 1 8 3.5198655869394777 44.03958410999723 0
378 1 2 10.648678149544565 44.3880063223167 0
379 1 8 17.3707185118719 44.20654851615724 0
380 1 2 24.58192295649636 44.060510415143696 0
381 1 12 31.38453550499352 44.1530550443916 0
382 1 12 38.19050355974599 44.39855972114138 0
383 1 12 45.30662259043092 44.3097806231674 0
384 1 12 52.134020514641364 44.393314236478126 0
385 1 2 59.196671586664216 44.26526025179641 0
386 1 8 66.12272696274842 44.16514816356069 0
387 1 2 72.82254766507262 44.00729352784983 0
388 1 8 79.8509873567095 44.15764210870657 0
389 1 8 86.82157958955092 44.11281672774126 0
390 1 9 93.77438368158147 44.31776963108916 0
391 1 11 100.85558344746902 44.26659944053764 0
392 1 11 107.73807312660028 44.0038856920157 0
393 1 9 114.6130200479411 44.267321637507166 0
394 1 8 121.61093098677574 44.18715510212897 0
395 1 8 128.52326845036237 44.04501582736789 0
396 1 2 135.29219132637098 44.29698386870265 0
397 1 8 142.39617595084803 44.326342391178734 0
398 1 2 149.17727993070042 44.071213875550086 0
399 1 12 155.9453508824102 44.38217143496388 0
400 1 12 163.10777867141442 44.25347260017653 0
401 1 4 -3.2840753971694205 48.227365150733284 0
402 1 2 3.754134855051979 48.14611190423348 0
403 1 8 10.57152829741105 48.28960290502059 0
404 1 2 17.64537606430039 48.148011002232245 0
405 1 8 24.347427717573105 48.27474110359978 0
406 1 9 31.407464151546083 48.04453977589674 0
407 1 9 38.228780120986336 48.14986196539341 0
408 1 9 45.24325505391826 48.23836826415075 0
409 1 9 52.27320173119602 48.20100253437287 0
410 1 8 58.90386302501664 48.06620960211661 0
411 1 2 66.07636297811062 48.27974213473122 0
412 1 8 73.12377108728583 48.05991139187026 0
413 1 2 79.7871317651444 48.0199246076927 0
414 1 9 86.71987544758302 48.30128802140462 0
415 1 8 93.5570751357674 48.30164111531063 0
416 1 9 100.5883317563223 48.23120746586746 0
417 1 9 107.56599949476899 48.03254907952113 0
418 1 8 114.33819991230375 48.14131313292315 0
419 1 9 121.3988623542883 48.09185386142822 0
420 1 2 128.44352969827986 48.36007400950817 0
421 1 8 135.28512270200122 48.193187973234814 0
422 1 2 142.2885045980508 48.2746531510971 0
423 1 8 149.08369155915258 48.19779117726999 0
424 1 9 156.05693705644822 48.26676984444253 0
425 1 9 163.2084920018659 48.275135528869875 0
426 1 8 0.24026704162103507 50.06138523572383 0
427 1 2 7.1310951004309535 50.08748058702454 0
428 1 8 14.153229194922188 50.26753225606778 0
429 1 2 20.819585102107794 50.205827232807046 0
430 1 9 27.73552243876445 50.20021248690044 0
431 1 8 34.7426560966387 50.02154966799697 0
432 1 8 41.68388795921303 50.0882584075018 0
433 1 8 48.894562240734096 50.313852713599395 0
434 1 9 55.46765252949628 50.12578561732079 0
435 1 2 62.439167167913695 50.22425744804965 0
436 1 8 69.46534788583476 50.0775709764679 0
437 1 2 76.48226079206661 50.3394804476395 0
438 1 8 83.24284259942318 50.05425979361346 0
439 1 8 90.25830921988178 50.14909520022907 0
440 1 8 97.35957155965332 50.32345772099114 0
441 1 8 104.21393944404528 50.01909403645306 0
442 1 8 111.15582197768711 50.23773545854088 0
443 1 8 118.04822327261722 50.09940599249966 0
444 1 8 124.99792396725528 50.04013434312952 0
445 1 2 131.8520488503293 50.287863610375965 0
446 1 8 138.96262814418571 50.027784213953275 0
447 1 2 145.88244280813737 50.14221576147569 0
448 1 9 152.50986163834014 50.30218272372892 0
449 1 8 159.42408380707752 50.11761451679911 0
450 1 8 166.30517459795269 50.28764555308655 0
451 1 2 0.06440120763390907 54.03804052511915 0
452 1 8 7.054291743106908 54.303806046738934 0
453 1 2 14.03200995925236 54.241923326228154 0
454 1 8 21.06795751004105 54.205201367288346 0
455 1 8 27.939553550314443 54.32810324822526 0
456 1 8 34.7595959883166 54.047781678408 0
457 1 8 41.92924010659949 54.26460656087138 0
458 1 8 48.83102861945497 54.0633155082713 0
459 1 8 55.69117933804912 54.308191854978965 0
460 1 8 62.48782358042389 54.02137689315015 0
461 1 2 69.32593218025613 54.28031275328377 0
462 1 8 76.42610391159684 54.276439109344764 0
463 1 2 83.2396120789953 54.15050219756109 0
464 1 9 90.29487327743593 54.26651469844173 0
465 1 8 97.01178541076465 54.20517110702132 0
466 1 8 104.22246834936861 54.354207271993076 0
467 1 8 111.1359325682198 54.221927545511974 0
468 1 9 117.84170264666551 54.02713395665327 0
469 1 2 124.83194711347694 54.35796511877589 0
470 1 8 131.65602986313482 54.15773625910067 0
471 1 2 138.85757078279647 54.27364998446478 0
472 1 8 145.6955452656189 54.1191100091273 0
473 1 8 152.5664328092054 54.27552909925764 0
474 1 8 159.43600055242456 54.16504037119929 0
475 1 8 166.47913495551037 54.18848794038045 0
476 1 7 -3.2616941436389593 56.21753453271118 0
477 1 2 3.5017846699483823 56.33899696209573 0
478 1 8 10.503734238933864 56.10018348042359 0
479 1 2 17.63983882224004 56.36755028624205 0
480 1 9 24.458960858717372 56.296977886935856 0
481 1 8 31.449683846574477 56.239892066156834 0
482 1 9 38.44103101189475 56.076997549224764 0
483 1 9 45.252362802042185 56.13396163338844 0
484 1 8 52.05597599144348 56.0303535307508 0
485 1 9 58.99619019462903 56.08871068457053 0
486 1 2 66.08197049862574 56.09309057098689 0
487 1 8 72.95686889940835 56.029749473233174 0
488 1 2 79.90889221240913 56.349525293751086 0
489 1 8 86.88759972766027 56.029050762126474 0
490 1 9 93.83764927815592 56.348283798578755 0
491 1 9 100.80803074812688 56.39745623388082 0
492 1 9 107.4388550225654 56.38396066480906 0
493 1 9 114.52922527150425 56.34549236634375 0
494 1 8 121.51547829445904 56.08485570648518 0
495 1 2 128.5167105181755 56.013704003438946 0
496 1 8 135.30818776207303 56.282970252740235 0
497 1 2 142.0389097935567 56.28000595352594 0
498 1 9 149.16915979234898 56.23338224884952 0
499 1 8 156.27941857469958 56.02800504237084 0
500 1 9 162.9449193012073 56.16860899640528 0
501 1 3 -3.1519386839646266 60.14561256444419 0
502 1 8 3.621161229887507 60.06776153283035 0
503 1 2 10.698525207573834 60.177104538355174 0
504 1 8 17.51747617244915 60.17058997194085 0
505 1 8 24.397829247759155 60.20080163202732 0
506 1 9 31.56846464849421 60.061602666135016 0
507 1 11 38.48652545700811 60.05908199069109 0
508 1 11 45.068643536443176 60.36444759111086 0
509 1 9 52.24322231280251 60.29963851043406 0
510 1 8 59.062074546186714 60.12275633830027 0
511 1 8 66.07753916078107 60.212969533288565 0
512 1 2 72.86962707859568 60.274828735739106 0
513 1 8 79.7503623476781 60.168991913604295 0
514 1 2 86.67476448515313 60.18334826471985 0
515 1 12 93.891057087151 60.07295052016967 0
516 1 12 100.82224324779172 60.22169944263348 0
517 1 12 107.49391232987665 60.27956952298919 0
518 1 12 114.42146520171906 60.176971935240594 0
519 1 2 121.32130447686664 60.1747565634116 0
520 1 8 128.5156811866494 60.140774189214845 0
521 1 2 135.22781177561788 60.130651964918265 0
522 1 8 142.05658543075427 60.312383912479426 0
523 1 8 149.07528871171743 60.28592127652337 0
524 1 9 155.9679374529351 60.3238502551213 0
525 1 11 162.85853970208146 60.040097057343104 0
526 1 2 0.19748354510643515 62.04431822596935 0
527 1 8 7.1023848938861684 62.363873072829456 0
528 1 2 14.137529059721235 62.19760538522098 0
529 1 9 21.12151623087899 62.070161088460694 0
530 1 8 27.995887496492 62.34661198415899 0
531 1 11 34.79176629867467 62.06868317177111 0
532 1 10 41.75501262090629 62.17890025281989 0
533 1 11 48.84667277703639 62.27187982851056 0
534 1 8 55.733258317006744 62.3500179186353 0
535 1 9 62.572115854808914 62.120085729609684 0
536 1 2 69.52727520734975 62.20781156491484 0
537 1 8 76.33988086174597 62.285983144855024 0
538 1 2 83.46914062692356 62.2748615730764 0
539 1 2 90.13536135152891 62.26035110279144 0
540 1 2 97.23376541128023 62.069657821018765 0
541 1 2 104.29574951619519 62.23043463377391 0
542 1 2 110.9838587633912 62.074313637294786 0
543 1 2 118.11853077357534 62.17471594369382 0
544 1 2 124.70937099519416 62.30053863341613 0
545 1 8 131.83938428174784 62.394485384969045 0
546 1 2 138.67292525081018 62.30506010017359 0
547 1 9 145.51443216562248 62.03359746047169 0
548 1 8 152.4655582787301 62.34356665429296 0
549 1 11 159.5519342543141 62.037245673427854 0
550 1 10 166.41844903655957 62.15570515470758 0
551 1 8 0.2241081721277777 66.26423525248498 0
552 1 2 7.186341886052338 66.38531659122151 0
553 1 8 14.024579278585314 66.33104402763111 0
554 1 8 21.090121736364562 66.17642193203727 0
555 1 9 27.926667113011835 66.28024579560474 0
556 1 10 34.74768142512503 66.27163533506973 0
557 1 5 41.904116035803824 66.32615541069276 0
558 1 10 48.610685848699916 66.24745715221998 0
559 1 9 55.782153717706855 66.07142324546027 0
560 1 8 62.37956325276378 66.32616527559509 0
561 1 8 69.37092222686853 66.10891408857168 0
562 1 2 76.23557929435505 66.32407199647692 0
563 1 8 83.37242607419681 66.12510855258421 0
564 1 2 90.1361215083547 66.35468522289469 0
565 1 2 97.28324942084777 66.05811594062033 0
566 1 2 103.95384436523057 66.1701005466437 0
567 1 2 111.04761663546473 66.25572436130795 0
568 1 2 117.94439108545242 66.29589201022604 0
569 1 8 124.86717330274679 66.38229479403411 0
570 1 2 131.85800321687205 66.23285144813681 0
571 1 8 138.69295871484164 66.27038568990079 0
572 1 8 145.59726681022354 66.32576163225491 0
573 1 9 152.6128982683979 66.31083252781478 0
574 1 10 159.57212065384502 66.27415773590195 0
575 1 5 166.65011728650643 66.1523035115784 0
576 1 2 -3.1441906261929584 68.36686152677783 0
577 1 8 3.527696060981071 68.31350786416928 0
578 1 2 10.602404761016848 68.01585896181138 0
579 1 9 17.599991774285282 68.0088225185745 0
580 1 8 24.267904979279262 68.02531170802183 0