
14309 atoms
14896 bonds
16659 angles
27 atom types
8 bond types
21 angle types

-5.680607966083864 171.52447279080386 xlo xhi
-2.0 148.0 ylo yhi
-4 4 zlo zhi


Masses

1 0.00023816832949603481
2 0.00043664193740939716
3 0.0005656497825530827
4 0.0005557261021574145
5 0.0004167945766180609
6 0.0003572524942440522
7 0.00047633665899206963
8 0.000674810266905432
9 0.0007541997100707769
10 0.0008732838748187943
11 0.0007343523492794406
12 0.0005755734629487507
13 0.0005358787413660783
14 0.000853436514027458
15 0.0008137417924447856
16 0.0006152681845314232
17 0.0008137417924447857
18 0.0005160313805747421
19 0.0006748102669054319
20 0.00047633665899206963
21 0.00039694721582672464
22 0.0005557261021574146
23 0.0005755734629487507
24 0.000595420823740087
25 0.0005160313805747421
26 0.00043664193740939716
27 0.0003572524942440522

Pair Coeffs

1 0.40509979849834776 0.44544935907016964 0.5
2 0.40509979849834776 0.44544935907016964 0.5
3 0.40509979849834776 0.44544935907016964 0.5
4 0.40509979849834776 0.44544935907016964 0.5
5 0.40509979849834776 0.44544935907016964 0.5
6 0.40509979849834776 0.44544935907016964 0.5
7 0.40509979849834776 0.44544935907016964 0.5
8 0.40509979849834776 0.44544935907016964 0.5
9 0.40509979849834776 0.44544935907016964 0.5
10 0.40509979849834776 0.44544935907016964 0.5
11 0.40509979849834776 0.44544935907016964 0.5
12 0.40509979849834776 0.44544935907016964 0.5
13 0.40509979849834776 0.44544935907016964 0.5
14 0.40509979849834776 0.44544935907016964 0.5
15 0.40509979849834776 0.44544935907016964 0.5
16 0.40509979849834776 0.44544935907016964 0.5
17 0.40509979849834776 0.44544935907016964 0.5
18 0.40509979849834776 0.44544935907016964 0.5
19 0.40509979849834776 0.44544935907016964 0.5
20 0.40509979849834776 0.44544935907016964 0.5
21 0.40509979849834776 0.44544935907016964 0.5
22 0.40509979849834776 0.44544935907016964 0.5
23 0.40509979849834776 0.44544935907016964 0.5
24 0.40509979849834776 0.44544935907016964 0.5
25 0.40509979849834776 0.44544935907016964 0.5
26 0.40509979849834776 0.44544935907016964 0.5
27 0.40509979849834776 0.44544935907016964 0.5

Bond Coeffs

1 95.26733179841392 0.5
2 79.38944316534493 0.5
3 111.14522043148291 0.5
4 115.11469258975015 0.5
5 119.0841647480174 0.5
6 103.20627611494841 0.5
7 87.32838748187943 0.5
8 71.45049884881044 0.5

Angle Coeffs

1 7.20527829533371 180
2 4.169721235725525 180
3 11.441715070830847 180
4 12.711916402263734 180
5 14.07280917057365 180
6 9.160877554888982 180
7 5.549898964750677 180
8 3.0397267808439086 180
9 5.28246209335316 120
10 12.04341679560189 120
11 11.097617282035285 120
12 4.761818073574152 120
13 3.0397267808439086 120
14 7.20527829533371 120
15 8.842255654023125 120
16 13.35779029991324 120
17 12.711916402263734 120
18 6.91220409612088 120
19 9.160877554888982 120
20 3.5161674735036534 120
21 4.169721235725525 120

Atoms

1 1 1 -3.451468408866031 0.3126905137920768 0
2 1 2 3.679586791451841 0.25184597152972155 0
3 1 3 10.661781210912043 0.1791908557255547 0
4 1 4 17.53789837219227 0.19444607274699513 0
5 1 5 24.418847321787432 0.24202414307167874 0
6 1 6 31.37798525810569 0.3158231094468835 0
7 1 6 38.421012711118166 0.15637956388683594 0
8 1 5 45.18516225061099 0.22299624644482338 0
9 1 4 52.11080805895631 0.11171758225801708 0
10 1 3 58.89755961195942 0.2241907266819613 0
11 1 2 65.97222407153303 0.11221824214970924 0
12 1 7 73.03906358118347 0.15347149366360735 0
13 1 7 79.82401348299263 0.1643368984033848 0
14 1 7 86.78372605377214 0.23390793864411785 0
15 1 7 93.6471945608734 0.36489651539144974 0
16 1 7 100.69142789849005 0.14634991707056982 0
17 1 2 107.4089961286491 0.2040859696145948 0
18 1 3 114.66008076277014 0.08484519637614003 0
19 1 4 121.6178293365624 0.14507473195414675 0
20 1 5 128.4282453227196 0.3746903330204764 0
21 1 6 135.37043972605878 0.06265997214963735 0
22 1 6 142.05830687852466 0.1468407466554257 0
23 1 5 149.25688786078115 0.1434771741322506 0
24 1 4 155.91628341143718 0.22355279347522763 0
25 1 3 163.03138685412333 0.33052271817396406 0
26 1 8 0.12149038093696052 2.2612306445631316 0
27 1 9 7.24163414655751 2.0373746008152813 0
28 1 10 14.114329158255819 2.28281397694825 0
29 1 11 21.122273263013884 2.3954537936541573 0
30 1 12 28.101123311872403 2.2166442546599114 0
31 1 13 34.97303744051599 2.0215756415592177 0
32 1 12 41.869055113747194 2.1951730547952657 0
33 1 11 48.7697939764182 2.3093508518926593 0
34 1 10 55.763779169825824 2.1184121971376912 0
35 1 9 62.397167630765445 2.39116440200672 0
36 1 8 69.61042302056389 2.0068337805447283 0
37 1 9 76.2542634479746 2.394551073696026 0
38 1 9 83.24368500462887 2.125351590906067 0
39 1 9 90.07941981084709 2.2909547723217414 0
40 1 9 97.2985311886805 2.274150996563852 0
41 1 8 104.2202680533099 2.0909811943595322 0
42 1 9 111.02245094921749 2.309062371459496 0
43 1 10 118.111672910933 2.236093772858035 0
44 1 11 125.06839675292973 2.054812071740238 0
45 1 12 131.76423232130895 2.1462552804875927 0
46 1 13 138.88263320360068 2.314216717254907 0
47 1 12 145.7503431121851 2.125597783186289 0
48 1 11 152.778016460674 2.278529869791342 0
49 1 10 159.6312212094326 2.04594204264124 0
50 1 9 166.61916650873036 2.029955426331686 0
51 1 9 0.2186707113429811 6.033706175536391 0
52 1 8 7.143473417669362 6.308477988835188 0
53 1 14 14.018832777449164 6.117064920317959 0
54 1 15 20.87940347221316 6.083757996632423 0
55 1 16 27.760857442323026 6.370471563923744 0
56 1 12 34.83874242902569 6.116476948996368 0
57 1 16 41.86058564400568 6.197232809515832 0
58 1 15 48.693702612019365 6.053431994903037 0
59 1 14 55.65024512428271 6.343740304926355 0
60 1 8 62.72229170845218 6.086589761590483 0
61 1 9 69.56838138419383 6.345635838944172 0
62 1 14 76.33023140307185 6.293145094705535 0
63 1 14 83.17240827412802 6.066732519383427 0
64 1 14 90.2001570571035 6.094697400414621 0
65 1 14 97.35055612383414 6.257089646492094 0
66 1 9 103.99622956970573 6.334517492904418 0
67 1 8 111.04503813801021 6.399465672077853 0
68 1 14 118.00003992777012 6.386890900132621 0
69 1 15 124.72966734517112 6.281059739555362 0
70 1 16 131.65892836381406 6.22592838527557 0
71 1 12 138.84332492460442 6.14419422643157 0
72 1 16 145.60873090015852 6.005321866086951 0
73 1 15 152.54293063800327 6.100915208501588 0
74 1 14 159.54973254952296 6.234889823439966 0
75 1 8 166.49880854468606 6.172085238218386 0
76 1 3 -3.1433591793543303 8.375673070430432 0
77 1 8 3.7923082576639877 8.306195450199969 0
78 1 9 10.609681950689156 8.228625108207464 0
79 1 10 17.52239115271605 8.156402524073373 0
80 1 11 24.516380141603232 8.323916965183503 0
81 1 16 31.353488088297983 8.023710249733792 0
82 1 16 38.4240886048631 8.141309950714932 0
83 1 11 45.33538421969755 8.212403987779377 0
84 1 10 52.23567446612656 8.285561741333671 0
85 1 9 58.94457759539962 8.132666893485258 0
86 1 8 65.8416343295338 8.207623849397415 0
87 1 14 72.8941053467217 8.306336651021699 0
88 1 10 80.02383700479254 8.080604172383094 0
89 1 10 86.80068071309724 8.064793087407432 0
90 1 10 93.66632780890531 8.147547450812315 0
91 1 14 100.50977957668611 8.355569832012208 0
92 1 8 107.75527179588508 8.267774193716141 0
93 1 9 114.70207393510691 8.295869527001358 0
94 1 10 121.3450995487287 8.187964088385517 0
95 1 11 128.37677170126875 8.118432319326145 0
96 1 16 135.23301498886374 8.154660385060204 0
97 1 16 142.42336469242414 8.223892353507255 0
98 1 11 149.07929385796785 8.175319229802824 0
99 1 10 156.09595765374823 8.060326063344824 0
100 1 9 162.90501778569467 8.000420914943646 0
101 1 12 -3.1201591608934653 12.138559284263046 0
102 1 9 3.734049253632601 12.304745872566764 0
103 1 8 10.754397609703224 12.337053001486547 0
104 1 14 17.661538046637364 12.038902167199518 0
105 1 15 24.63519748411182 12.1383789043174 0
106 1 11 31.443593925523405 12.034673383624241 0
107 1 11 38.307152602317714 12.023704807901613 0
108 1 15 45.37257529423583 12.254684449920957 0
109 1 14 52.086549835414246 12.196437062768762 0
110 1 8 58.96040150108577 12.164505528033217 0
111 1 9 65.8671279976884 12.168490891998404 0
112 1 10 72.86956646334318 12.315260352691158 0
113 1 17 79.80888229567661 12.334535071182534 0
114 1 17 86.75475442992627 12.08778348896578 0
115 1 17 93.66806675260382 12.235993838359873 0
116 1 10 100.59399271185252 12.287687218071028 0
117 1 9 107.63783324395585 12.147514971045572 0
118 1 8 114.55419289892392 12.245794882762373 0
119 1 14 121.49444090852226 12.172550050352012 0
120 1 15 128.29934465140104 12.134303138979957 0
121 1 11 135.10897923892364 12.251993568061225 0
122 1 11 142.34453275587956 12.186014381035914 0
123 1 15 149.20462263425674 12.081317872757468 0
124 1 14 155.9818509855616 12.153565142497627 0
125 1 8 163.02314156074297 12.110402031473217 0
126 1 14 0.11532217189920467 14.203745258420666 0
127 1 8 7.033206056895237 14.239940457835464 0
128 1 9 14.234335551736994 14.05612613997914 0
129 1 10 20.92098080968646 14.110105557134933 0
130 1 17 27.96909008258594 14.053855767128574 0
131 1 17 34.67681352489338 14.368782946722135 0
132 1 17 41.66445120185357 14.007153084112593 0
133 1 10 48.890845920327095 14.244950692209137 0
134 1 9 55.76976362158034 14.22276489074208 0
135 1 8 62.516037728383296 14.107102062411268 0
136 1 14 69.31024364362405 14.350513887279448 0
137 1 15 76.30149500536388 14.352708650717412 0
138 1 11 83.53795052684073 14.027425389064085 0
139 1 11 90.25050998855397 14.06080197895513 0
140 1 15 97.29554354126977 14.346410066288378 0
141 1 14 103.9460070413195 14.239135333825285 0
142 1 8 111.06421826502128 14.016108673296184 0
143 1 9 117.78081170711044 14.14391819834014 0
144 1 10 125.05830856424525 14.227696772519224 0
145 1 17 131.97924952716562 14.335484242321247 0
146 1 17 138.84894453496054 14.166674941015714 0
147 1 17 145.80154577497413 14.30244192496311 0
148 1 10 152.45486670224943 14.232541495002845 0
149 1 9 159.4486205473909 14.093718788775844 0
150 1 8 166.66450608235675 14.167366992305155 0
151 1 10 0.08233675717615818 18.299081023945604 0
152 1 9 6.933583673172203 18.213084991551618 0
153 1 8 14.161827973707851 18.005180377411254 0
154 1 14 21.094566814566054 18.082846800941116 0
155 1 10 28.083107691691062 18.05160136885029 0
156 1 10 34.73798381467557 18.3927182682566 0
157 1 10 41.84564850723825 18.164096625432453 0
158 1 14 48.61601874703571 18.05047626839857 0
159 1 8 55.5763438409118 18.39908989851745 0
160 1 9 62.545159852668995 18.08122496745247 0
161 1 10 69.64120534698093 18.004016563341406 0
162 1 11 76.21988485093864 18.214615218569516 0
163 1 16 83.34239299322945 18.14126210938058 0
164 1 16 90.1175408487829 18.27052591624442 0
165 1 11 97.1109967871655 18.029749989442653 0
166 1 10 104.30950471664437 18.00538855585597 0
167 1 9 111.1450009308547 18.35065105498849 0
168 1 8 118.01993798088998 18.185910698315162 0
169 1 14 124.84613435809575 18.119898469875405 0
170 1 10 131.990838735602 18.15842380781072 0
171 1 10 138.9389849900682 18.205950107614047 0
172 1 10 145.75594103309766 18.13124418972703 0
173 1 14 152.77081844960685 18.20387427552516 0
174 1 8 159.71634684913354 18.02928235371013 0
175 1 9 166.54704797151214 18.033607434572854 0
176 1 4 -3.4276532697459627 20.263567404978083 0
177 1 14 3.535316250635633 20.27671050744076 0
178 1 8 10.40007107035706 20.328895314705264 0
179 1 9 17.6922733201182 20.036158450684148 0
180 1 14 24.519323480483145 20.166632884720716 0
181 1 14 31.279361700158443 20.209482817624846 0
182 1 14 38.263487781090234 20.0766836280065 0
183 1 14 45.242982460802516 20.17021765658702 0
184 1 9 52.33233555746466 20.066329588143955 0
185 1 8 59.133260848038624 20.079116382637455 0
186 1 14 66.09438728464305 20.003241671130855 0
187 1 15 72.81604353945869 20.039567352947472 0
188 1 16 79.7458403671252 20.06091313873479 0
189 1 12 86.85955675164594 20.1529339591712 0
190 1 16 93.85178233495304 20.2203535954578 0
191 1 15 100.48414775951603 20.103620906528704 0
192 1 14 107.45042598326951 20.174863634210446 0
193 1 8 114.3919151883809 20.023261348529925 0
194 1 9 121.56927617451643 20.341890050292484 0
195 1 14 128.52994859849244 20.347553297771064 0
196 1 14 135.1205149365512 20.33327261632551 0
197 1 14 142.14947739189623 20.390527007153874 0
198 1 14 149.02035592465865 20.172679729201946 0
199 1 9 155.90357928155308 20.304999196171497 0
200 1 8 163.0112167504091 20.238176883300945 0
201 1 18 -3.360944101594072 24.35049975818828 0
202 1 10 3.507399474307244 24.27007325282831 0
203 1 9 10.750292093495439 24.12147665798002 0
204 1 8 17.663024747643018 24.229580761537957 0
205 1 9 24.424836616333575 24.22785849208057 0
206 1 9 31.570075173674297 24.151634133909255 0
207 1 9 38.452023946597 24.173441642729106 0
208 1 9 45.22602963310713 24.319581675352353 0
209 1 8 52.12061760737648 24.322316571135307 0
210 1 9 59.15233776823063 24.130521113403834 0
211 1 10 65.89147913791389 24.010262463052726 0
212 1 11 72.80811410762041 24.17488369039507 0
213 1 12 79.9844334375584 24.326112963873413 0
214 1 13 86.98398402710228 24.023580487144937 0
215 1 12 93.5775246102668 24.252787938611068 0
216 1 11 100.56523628467525 24.016954494285365 0
217 1 10 107.5970082806646 24.150701437053527 0
218 1 9 114.4466838727774 24.04996114181297 0
219 1 8 121.39405567338825 24.0209797725112 0
220 1 9 128.46118670621865 24.129507746866263 0
221 1 9 135.48660160000628 24.344993749935917 0
222 1 9 142.18370341037158 24.06001777281684 0
223 1 9 149.09511246314415 24.02558486105875 0
224 1 8 156.19246166662612 24.32265202661905 0
225 1 9 163.06426908077867 24.258719573611454 0
226 1 15 0.34121524283328014 26.206387334114087 0
227 1 14 7.2114926711743825 26.09648753242216 0
228 1 8 14.21479534755883 26.28430543822138 0
229 1 19 21.168406391486727 26.347711399408624 0
230 1 19 27.953710658707728 26.213780606797368 0
231 1 19 34.69106846402396 26.25605589374739 0
232 1 19 41.63562186152522 26.306633595920093 0
233 1 19 48.77448346441446 26.051158741919824 0
234 1 8 55.82182029625772 26.195937940888435 0
235 1 14 62.596457852569586 26.374966719530942 0
236 1 15 69.444899434898 26.150177955865065 0
237 1 16 76.30674335792193 26.166171791823643 0
238 1 13 83.4472816384433 26.314370685631346 0
239 1 13 90.25477056883582 26.351446407875805 0
240 1 16 97.01382385303536 26.37860574501392 0
241 1 15 104.16215181191173 26.319709239354275 0
242 1 14 110.97662951760739 26.344971295195215 0
243 1 8 118.00125662096333 26.143148024953955 0
244 1 19 124.96433868496663 26.277060642658572 0
245 1 19 131.70576602416583 26.22698093150427 0
246 1 19 138.63891510967323 26.301644101836263 0
247 1 19 145.87423047096632 26.16070545268878 0
248 1 19 152.6545029941141 26.15774774056461 0
249 1 8 159.4351026003426 26.15781635336323 0
250 1 14 166.61738598718173 26.017237658928625 0
251 1 15 0.25958312350307516 30.187574256239166 0
252 1 14 7.15515980936034 30.336054910956523 0
253 1 8 14.022680818362234 30.149127316289402 0
254 1 19 21.02947667849629 30.203040010387305 0
255 1 19 27.727685348068704 30.00769026155503 0
256 1 19 34.87949368426155 30.37035860786499 0
257 1 19 41.89917519515426 30.16194781218409 0
258 1 19 48.502790089575115 30.083523107430764 0
259 1 8 55.615619281719354 30.00505922973815 0
260 1 14 62.587689517328435 30.07705339884691 0
261 1 15 69.29998001818205 30.30500223749967 0
262 1 16 76.51354160985413 30.26992819477556 0
263 1 13 83.23296324522367 30.22619824165535 0
264 1 13 90.38165104674934 30.12964321771382 0
265 1 16 97.03108897595959 30.128150661230375 0
266 1 15 103.9457435796716 30.334420838408978 0
267 1 14 111.01725508837269 30.253701375776153 0
268 1 8 117.87612288463365 30.348604841837123 0
269 1 19 124.75122129489935 30.052203488536346 0
270 1 19 131.88259984376407 30.303041107067013 0
271 1 19 138.92612190085046 30.15671164628014 0
272 1 19 145.82857723767262 30.00463590294207 0
273 1 19 152.6518307043454 30.213536468060955 0
274 1 8 159.7310126335172 30.39648929413317 0
275 1 14 166.61255508212741 30.14962242642212 0
276 1 18 -3.2962426187149565 32.29895254955412 0
277 1 10 3.666980057712858 32.27634244581411 0
278 1 9 10.4491000051626 32.25259116241796 0
279 1 8 17.326077780984555 32.23461012817473 0
280 1 9 24.491125493041494 32.11018590575977 0
281 1 9 31.44340825092784 32.19471084298535 0
282 1 9 38.447539395911065 32.32660583198189 0
283 1 9 45.05921262955354 32.033603282843714 0
284 1 8 52.013176382321596 32.36019225609408 0
285 1 9 58.90760430751049 32.14166988818276 0
286 1 10 65.88798741257592 32.3502076714015 0
287 1 11 72.83798279612633 32.31122046801082 0
288 1 12 79.95351773930865 32.2768398608246 0
289 1 13 86.65378076831658 32.36266032440454 0
290 1 12 93.86023673872306 32.36139912444137 0
291 1 11 100.47646191052041 32.300756868176386 0
292 1 10 107.40141083607325 32.14831192256816 0
293 1 9 114.32386623687616 32.08554996452643 0
294 1 8 121.5346395880965 32.13651092897642 0
295 1 9 128.44135830153178 32.10870230493508 0
296 1 9 135.36303164779645 32.25041328012552 0
297 1 9 142.149139027796 32.15186534405448 0
298 1 9 149.07178024433122 32.197788483921634 0
299 1 8 156.25337602619086 32.21448009390788 0
300 1 9 163.01065153199906 32.015128033088246 0
301 1 4 -3.2440700140165935 36.33995655368317 0
302 1 14 3.7591543836729615 36.394704140706864 0
303 1 8 10.464883686470165 36.2581429871057 0
304 1 9 17.703398995813366 36.226117310599314 0
305 1 14 24.287961350134808 36.340822714559636 0
306 1 14 31.357555623506652 36.13510932343934 0
307 1 14 38.468726695608524 36.195596757294545 0
308 1 14 45.047873939710584 36.30894401404811 0
309 1 9 52.228818654729196 36.39262951440652 0
310 1 8 59.17039331937021 36.12774675192955 0
311 1 14 66.14955849236688 36.331621733834226 0
312 1 15 73.11486304843282 36.05452280578028 0
313 1 16 79.74710996127945 36.1815539276739 0
314 1 12 86.82856817414245 36.23631785763665 0
315 1 16 93.90675469489997 36.37395455336856 0
316 1 15 100.74079379456536 36.36715693212605 0
317 1 14 107.72248440003912 36.32212873776401 0
318 1 8 114.34830779889356 36.13755957025414 0
319 1 9 121.36902350165569 36.02652572763001 0
320 1 14 128.49372362786835 36.31007535794081 0
321 1 14 135.19989160422983 36.23361436154746 0
322 1 14 142.16201279293423 36.111199330861055 0
323 1 14 149.21431779093604 36.0695009987896 0
324 1 9 156.24492448742035 36.36753889929099 0
325 1 8 163.11877774771295 36.0387784866797 0
326 1 10 0.06667475505840362 38.336392485529025 0
327 1 9 7.267833126811354 38.17718132423676 0
328 1 8 14.07558430582682 38.08635334275028 0
329 1 14 21.06764913598751 38.374641293697486 0
330 1 10 27.999060565247717 38.14678891896594 0
331 1 10 34.64596564311801 38.309353322964164 0
332 1 10 41.71171790416215 38.305291263723184 0
333 1 14 48.59134662000816 38.29678658137027 0
334 1 8 55.59241220034361 38.36399019031357 0
335 1 9 62.49982192941555 38.14329984539799 0
336 1 10 69.57582130164293 38.039630267803894 0
337 1 11 76.54782999092409 38.27459969924868 0
338 1 16 83.3929575887432 38.053630519092486 0
339 1 16 90.08151188501256 38.135669476071314 0
340 1 11 97.19756394495111 38.02243988357097 0
341 1 10 104.2630358322602 38.390318857230085 0
342 1 9 111.24262069381015 38.28305723668158 0
343 1 8 117.95906198676957 38.25313514592707 0
344 1 14 124.88459506629387 38.166462226792746 0
345 1 10 131.74123104287239 38.27108940443702 0
346 1 10 138.9370558538263 38.0200922897459 0
347 1 10 145.72720906026078 38.26411504003041 0
348 1 14 152.70935886678916 38.23744997120674 0
349 1 8 159.72025842608886 38.18797397297791 0
350 1 9 166.37089789758696 38.33988804405959 0
351 1 14 0.1983935035324656 42.30248615505915 0
352 1 8 7.2662439978251845 42.29666698790668 0
353 1 9 13.943006046635892 42.37238965636191 0
354 1 10 20.83412372353555 42.16820111856599 0
355 1 17 28.032726681481403 42.31969579486231 0
356 1 17 35.009397823476995 42.146089056553734 0
357 1 17 41.86444976573336 42.349226742112286 0
358 1 10 48.84770035529623 42.30341762704046 0
359 1 9 55.72237670142464 42.033976130479296 0
360 1 8 62.486926009090276 42.35247908914503 0
361 1 14 69.50605787521137 42.34294883655792 0
362 1 15 76.21137285994804 42.193999966700154 0
363 1 11 83.45631697989155 42.29693874677548 0
364 1 11 90.341382021089 42.24169848902834 0
365 1 15 97.22773509381236 42.22539039872906 0
366 1 14 104.08884931241988 42.09580643265305 0
367 1 8 110.9146419277685 42.29296959477228 0
368 1 9 118.0650103284695 42.07872403854605 0
369 1 10 124.86449311379762 42.232062128650895 0
370 1 17 131.9622972611174 42.300534417817026 0
371 1 17 138.89147061621125 42.28593465700495 0
372 1 17 145.80486162170118 42.39416390505879 0
373 1 10 152.72599199008746 42.209178223580395 0
374 1 9 159.5413988727679 42.153158636680104 0
375 1 8 166.3759942886971 42.121834773435964 0
376 1 12 -3.340598676160704 44.164185905477396 0
377 1 9 3.7497351823246547 44.03041537452367 0
378 1 8 10.520898893446532 44.27954249968258 0
379 1 14 17.43156443876448 44.23067250446345 0
380 1 15 24.28889150404493 44.31225283240477 0
381 1 11 31.27267600658926 44.09259860923405 0
382 1 11 38.46630711359615 44.207371254462664 0
383 1 15 45.18723133009556 44.07019699418842 0
384 1 14 52.0390278414329 44.35167572526504 0
385 1 8 59.27820082509334 44.19486300571599 0
386 1 9 65.98379078946846 44.30333252246182 0
387 1 10 73.1160795774317 44.142837535675106 0
388 1 17 80.03534174508412 44.205426532510465 0
389 1 17 86.95343245681153 44.287337357349465 0
390 1 17 93.70666936041874 44.28505311039382 0
391 1 10 100.61307109041151 44.094732200575926 0
392 1 9 107.72815147293319 44.34790797902224 0
393 1 8 114.70336503148825 44.243007224894335 0
394 1 14 121.38249472793393 44.364947006349865 0
395 1 15 128.24625857089407 44.185009453214846 0
396 1 11 135.22066463895342 44.32627603583781 0
397 1 11 142.35337218227139 44.16310792852936 0
398 1 15 149.14130100711927 44.10140267414853 0
399 1 14 156.12932437273363 44.20691567290509 0
400 1 8 162.9910353423895 44.17624595358726 0
401 1 3 -3.2823579097429 48.26335909076266 0
402 1 8 3.471623203711672 48.284534926828144 0
403 1 9 10.624789523621848 48.06568053579078 0
404 1 10 17.371644519558565 48.39703792604146 0
405 1 11 24.630111996137742 48.26974329148518 0
406 1 16 31.184962386668957 48.360045452785585 0
407 1 16 38.38854833910225 48.39658682497479 0
408 1 11 45.41905721353773 48.275319190047384 0
409 1 10 52.32494682583012 48.11190089206585 0
410 1 9 59.27638583954574 48.284240270131924 0
411 1 8 66.07277388588862 48.02364116259222 0
412 1 14 73.00295049447104 48.177603490993064 0
413 1 10 79.90014337558254 48.25022055019766 0
414 1 10 86.73925170717912 48.248928433439175 0
415 1 10 93.5796866846529 48.06504652546622 0
416 1 14 100.69119858261897 48.056307683223196 0
417 1 8 107.48299334518536 48.09497175035447 0
418 1 9 114.36669965528384 48.052219883378655 0
419 1 10 121.61886265185413 48.269963236969176 0
420 1 11 128.24589782326376 48.39271580994854 0
421 1 16 135.4862570877324 48.03782067544706 0
422 1 16 142.25758366960596 48.15647511913085 0
423 1 11 149.19688177567616 48.20781756824371 0
424 1 10 156.05999233410066 48.21206397279607 0
425 1 9 163.19877184839578 48.29330515638541 0
426 1 9 0.1984432403143154 50.148545470936924 0
427 1 8 6.94075936035149 50.2666108640318 0
428 1 14 14.05379037780945 50.21267068232697 0
429 1 15 20.800230402166076 50.21615276559282 0
430 1 16 28.07038459899504 50.09919806905501 0
431 1 12 35.007975668511556 50.22737566201059 0
432 1 16 41.71405675566412 50.34541125190458 0
433 1 15 48.844799330604445 50.29369755963723 0
434 1 14 55.76168284855289 50.08501058343205 0
435 1 8 62.39476559502688 50.033245158640696 0
436 1 9 69.6047844561223 50.058570719208525 0
437 1 14 76.44174977619981 50.20649530817172 0
438 1 14 83.18762134251166 50.22615037645379 0
439 1 14 90.41273559541715 50.1316092261392 0
440 1 14 97.10487957245927 50.026680708422674 0
441 1 9 104.05582821298607 50.18436215131835 0
442 1 8 111.13011230180703 50.30287157486899 0
443 1 14 118.10367263702561 50.236638338216714 0
444 1 15 124.8381318137544 50.38876220230625 0
445 1 16 131.77533779811182 50.26535574194564 0
446 1 12 138.90426279588715 50.31354309043534 0
447 1 16 145.79467213327527 50.13181917104394 0
448 1 15 152.63972539843465 50.3585520710664 0
449 1 14 159.36954933182395 50.17632785663633 0
450 1 8 166.59158887235492 50.278295075755146 0
451 1 8 0.2681846172419073 54.21788225066846 0
452 1 9 7.31190817846735 54.2163562378402 0
453 1 10 14.145714686941997 54.297381141109156 0
454 1 11 21.036632923148932 54.39531044379582 0
455 1 12 27.769019837408507 54.11365984273879 0
456 1 13 34.79021182673375 54.36563554221218 0
457 1 12 41.779923885633075 54.13763078366678 0
458 1 11 48.670056566655205 54.312910821130636 0
459 1 10 55.7628615848793 54.1575671533377 0
460 1 9 62.683359219874205 54.294928680546604 0
461 1 8 69.50641796710711 54.20450234078015 0
462 1 9 76.39188289653552 54.06357138601611 0
463 1 9 83.29551294157734 54.12243237839669 0
464 1 9 90.20707653704108 54.34147421780275 0
465 1 9 97.33135793902903 54.29712671503755 0
466 1 8 104.17545788603482 54.19814417541162 0
467 1 9 110.95170715272214 54.30775824593339 0
468 1 10 117.7925217480468 54.16679430346201 0
469 1 11 124.82882798918162 54.319400337062426 0
470 1 12 131.97967305089233 54.22746254929732 0
471 1 13 138.9411247536647 54.171875882360865 0
472 1 12 145.7273332405849 54.21055115993093 0
473 1 11 152.54602297481782 54.0944027729265 0
474 1 10 159.36635658566973 54.13282701474887 0
475 1 9 166.30861740703506 54.36011350312752 0
476 1 2 -3.3161140639773556 56.024691345633336 0
477 1 8 3.735682823513067 56.0795932276916 0
478 1 14 10.495068985990791 56.16026450568513 0
479 1 15 17.471627874344684 56.24850281429159 0
480 1 16 24.630832098815418 56.27796830643852 0
481 1 13 31.29734871814816 56.219915315036936 0
482 1 13 38.48818599833696 56.16878484656022 0
483 1 16 45.04252192859004 56.11290532652755 0
484 1 15 52.01341441087359 56.35992049302348 0
485 1 14 59.06815914450857 56.034920895780154 0
486 1 8 65.95664593694191 56.36206401389666 0
487 1 19 73.0349643866952 56.33427006014715 0
488 1 19 79.73725568872972 56.22415962719024 0
489 1 19 86.70537148500385 56.161440763634076 0
490 1 19 93.6438406927959 56.03237502480845 0
491 1 19 100.5078207580634 56.09382456176547 0
492 1 8 107.71027828066374 56.00884550483376 0
493 1 14 114.63433439305929 56.15189814901084 0
494 1 15 121.6277789181344 56.39710342047092 0
495 1 16 128.34303780991033 56.33721134379247 0
496 1 13 135.34082250468887 56.06039357489665 0
497 1 13 142.3431744500664 56.07586091985844 0
498 1 16 149.07123032051518 56.01868889388341 0
499 1 15 156.0415522092107 56.08516358739907 0
500 1 14 162.96295853923306 56.17067956472026 0
501 1 2 -3.4489483676143444 60.27421538094178 0
502 1 8 3.8440650751962533 60.281561994328676 0
503 1 14 10.76950126862674 60.01076453377634 0
504 1 15 17.436600942216987 60.32801915163681 0
505 1 16 24.30032563126138 60.07020335082872 0
506 1 13 31.26177355415477 60.21262038536086 0
507 1 13 38.19452860617685 60.158034951980405 0
508 1 16 45.30318355374525 60.19033688203539 0
509 1 15 52.252321930804754 60.17232978642141 0
510 1 14 59.27118432691027 60.22660040571494 0
511 1 8 65.89669481745335 60.09402348731482 0
512 1 19 73.08389678189072 60.20390372869433 0
513 1 19 79.81918499408582 60.38999893265801 0
514 1 19 86.78116607547078 60.26391682883521 0
515 1 19 93.87320983326192 60.39332044911997 0
516 1 19 100.8208629517351 60.089992013180016 0
517 1 8 107.55907749333252 60.38606461870914 0
518 1 14 114.5991039941679 60.35963633085513 0
519 1 15 121.52737491611997 60.130087863857064 0
520 1 16 128.48363781674888 60.39836799794583 0
521 1 13 135.4221755300671 60.26993869735842 0
522 1 13 142.08506259197955 60.2548376595977 0
523 1 16 149.23687788895828 60.076112277879325 0
524 1 15 155.93636961230285 60.174495039160576 0
525 1 14 163.1887901460681 60.28030603645426 0
526 1 8 0.32653481310976307 62.04460948176143 0
527 1 9 7.28671504886883 62.34776287203348 0
528 1 10 13.929860755834875 62.02425686064033 0
529 1 11 20.95445509326056 62.21474813144794 0
530 1 12 28.008654214109548 62.285145035276805 0
531 1 13 34.90113846760244 62.25603229669076 0
532 1 12 41.877676387204225 62.08878112814964 0
533 1 11 48.61294000835109 62.018314962357444 0
534 1 10 55.810155855711116 62.03687771573043 0
535 1 9 62.41694809953437 62.19528392611576 0
536 1 8 69.52556068269834 62.028167961118534 0
537 1 9 76.6087107665819 62.01871449878421 0
538 1 9 83.3342578557427 62.25844072846542 0
539 1 9 90.14007107652938 62.002143187328194 0
540 1 9 97.05595583958866 62.13802674816134 0
541 1 8 104.11060792092877 62.26677766123111 0
542 1 9 111.20978286924819 62.250322622155586 0
543 1 10 117.82522450144248 62.23066638920194 0
544 1 11 124.83762070464601 62.09559116824377 0
545 1 12 131.97574222499907 62.36742135837292 0
546 1 13 138.65239493334101 62.274016307547306 0
547 1 12 145.61589391032302 62.089355027931845 0
548 1 11 152.7336523418387 62.0175052440305 0
549 1 10 159.41044407189298 62.149622563370734 0
550 1 9 166.57867856737514 62.047304081919876 0
551 1 9 0.32097525275329586 66.30639113980777 0
552 1 8 7.314515536108263 66.00361203556754 0
553 1 14 13.93812796562944 66.20425823036389 0
554 1 15 20.806653084061843 66.28646615353588 0
555 1 16 27.992547335259182 66.22619497490697 0
556 1 12 34.915113361108304 66.3376250376502 0
557 1 16 41.92619843159051 66.02912664157716 0
558 1 15 48.62433812026127 66.29226633697405 0
559 1 14 55.436873772606006 66.37793386070412 0