
14309 atoms
14896 bonds
16659 angles
15 atom types
5 bond types
11 angle types

-5.680607966083864 171.52447279080386 xlo xhi
-2.0 148.0 ylo yhi
-4 4 zlo zhi


Masses

1 0.00029678036340452665
2 0.0008161459993624483
3 0.00024113404526617788
4 0.000426621772394007
5 0.0005935607268090533
6 0.001112926362766975
7 0.0006677558176601849
8 0.00040807299968122413
9 0.00033387790883009246
10 0.00037097545425565827
11 0.0005935607268090533
12 0.0010387312719158433
13 0.00014839018170226332
14 0.00033387790883009246
15 0.0005193656359579217

Pair Coeffs

1 0.40509979849834776 0.44544935907016964 0.5
2 0.40509979849834776 0.44544935907016964 0.5
3 0.40509979849834776 0.44544935907016964 0.5
4 0.40509979849834776 0.44544935907016964 0.5
5 0.40509979849834776 0.44544935907016964 0.5
6 0.40509979849834776 0.44544935907016964 0.5
7 0.40509979849834776 0.44544935907016964 0.5
8 0.40509979849834776 0.44544935907016964 0.5
9 0.40509979849834776 0.44544935907016964 0.5
10 0.40509979849834776 0.44544935907016964 0.5
11 0.40509979849834776 0.44544935907016964 0.5
12 0.40509979849834776 0.44544935907016964 0.5
13 0.40509979849834776 0.44544935907016964 0.5
14 0.40509979849834776 0.44544935907016964 0.5
15 0.40509979849834776 0.44544935907016964 0.5

Bond Coeffs

1 118.71214536181066 0.5
2 207.74625438316866 0.5
3 29.678036340452664 0.5
4 66.77558176601849 0.5
5 103.87312719158433 0.5

Angle Coeffs

1 13.941330238988217 180
2 74.71681674957749 180
3 0.21783328498419088 180
4 2.481257261773049 180
5 9.339602093697186 180
6 23.498163498638615 120
7 0.4005055857590798 120
8 3.9208580053586206 120
9 13.941330238988217 120
10 0.42896400735348333 120
11 2.481257261773049 120

Atoms

1 1 1 -3.310387644217016 0.3643897604638134 0
2 1 2 3.5415108612676613 0.23919546101363018 0
3 1 3 10.612889571638314 0.046810161166715374 0
4 1 4 17.420757431610973 0.16990118618196937 0
5 1 4 24.61678894156781 0.1919198989970291 0
6 1 3 31.5322781781632 0.2078015042326583 0
7 1 2 38.12244303558811 0.15354381431212583 0
8 1 5 45.07435125655578 0.08855557856767132 0
9 1 5 52.26548000989971 0.31680954283631957 0
10 1 5 59.27441334961473 0.11558992755133485 0
11 1 2 65.8413622739999 0.325702403807546 0
12 1 3 73.08876362190759 0.25386975983050547 0
13 1 4 79.6986993478033 0.10341323928197427 0
14 1 4 86.92598122619238 0.1637353362819619 0
15 1 3 93.72452501710369 0.3834433857980711 0
16 1 2 100.63582359030846 0.30912285116497545 0
17 1 5 107.63186108054563 0.3211564359133819 0
18 1 5 114.6660018426123 0.1342084293584067 0
19 1 5 121.4431948115379 0.026957081491874747 0
20 1 2 128.4696805143854 0.34725937104577387 0
21 1 3 135.36079312495815 0.1552297583480217 0
22 1 4 142.12585713214503 0.3581856993945575 0
23 1 4 149.07041192134358 0.34168876097771594 0
24 1 3 155.91912482183017 0.15270515764720238 0
25 1 2 163.08756998084112 0.32538141204121374 0
26 1 6 0.17781542925888202 2.055342821904861 0
27 1 7 7.010977731365814 2.1658738218801585 0
28 1 5 14.094413706970576 2.2759164844511934 0
29 1 5 20.98754807052348 2.2252254217559964 0
30 1 5 27.75763674378213 2.18365684317769 0
31 1 7 34.87155172707656 2.068102615920048 0
32 1 6 41.748409437694946 2.258120065167107 0
33 1 7 48.641999361215866 2.1419519512446104 0
34 1 7 55.436854168851845 2.0809098710215035 0
35 1 6 62.374572910004346 2.3698542622922565 0
36 1 7 69.5977307352705 2.2373571843887885 0
37 1 5 76.47524298390125 2.185426835955924 0
38 1 5 83.34118470315731 2.0124255694352775 0
39 1 5 90.08076402497983 2.354877125284363 0
40 1 7 97.30508136601789 2.0760288317774056 0
41 1 6 104.03268486302096 2.139625914070831 0
42 1 7 111.21092112526003 2.2615529136666845 0
43 1 7 117.88472574882542 2.0061328982277113 0
44 1 6 124.97163788807593 2.1259961409539656 0
45 1 7 131.98942916485163 2.011015372670378 0
46 1 5 138.71129878757728 2.1160489484284444 0
47 1 5 145.69255443710654 2.3663164345979957 0
48 1 5 152.57574153650106 2.314294144055056 0
49 1 7 159.57904691136233 2.1966846454809974 0
50 1 6 166.37332681014345 2.1332334903194106 0
51 1 7 0.3245450447569105 6.197331396143091 0
52 1 6 7.200783799023395 6.366377270572809 0
53 1 8 14.10269176329797 6.052012696773588 0
54 1 5 20.838303662787236 6.064450638530298 0
55 1 8 28.01732535375492 6.359924168691388 0
56 1 6 34.78774564656241 6.328742042375951 0
57 1 7 41.66583770136792 6.150542965264749 0
58 1 8 48.883974755982976 6.313782180694251 0
59 1 8 55.494790022773685 6.2092700241439704 0
60 1 7 62.41570209531323 6.307588035882248 0
61 1 6 69.29130538657306 6.075755989094765 0
62 1 8 76.27117019148065 6.3699732798780415 0
63 1 5 83.1476509943853 6.274048841504103 0
64 1 8 90.0696636946922 6.045545688480365 0
65 1 6 97.05337306492628 6.130909487650579 0
66 1 7 104.20654922693548 6.191526749752022 0
67 1 8 111.08604652361967 6.156248150381228 0
68 1 8 117.97132287981461 6.336712510123981 0
69 1 7 124.92033081981981 6.2515042124870925 0
70 1 6 131.6796749703693 6.039740830399377 0
71 1 8 138.61701621817764 6.280534662000565 0
72 1 5 145.58029899823123 6.34052605909741 0
73 1 8 152.44863891256117 6.2248132671726175 0
74 1 6 159.3912361260691 6.380168767790909 0
75 1 7 166.52175388791204 6.192540077406015 0
76 1 3 -3.359306047678134 8.049759083381467 0
77 1 6 3.508632362417857 8.322980232011197 0
78 1 7 10.467848946260887 8.181536984366236 0
79 1 8 17.671187725903884 8.367433250271548 0
80 1 8 24.4046505715248 8.221552883953928 0
81 1 7 31.531898578545427 8.289465512577758 0
82 1 6 38.24900721106697 8.38043320773561 0
83 1 8 45.20416460295565 8.07867427236414 0
84 1 5 52.172667543496914 8.163631819121067 0
85 1 8 59.013838941102776 8.021369725828963 0
86 1 6 65.9513662535109 8.390375249154882 0
87 1 7 72.9647883943614 8.226057072302925 0
88 1 8 79.83578585835357 8.032393954660575 0
89 1 8 86.84989761599762 8.034408973141526 0
90 1 7 93.73996031503897 8.19630367328686 0
91 1 6 100.50635318278209 8.017725213944514 0
92 1 8 107.5325682569517 8.174792293810924 0
93 1 5 114.4306233046493 8.32719622681088 0
94 1 8 121.51269285194726 8.141496988028319 0
95 1 6 128.4707182905231 8.177919997227335 0
96 1 7 135.46685134372004 8.355723422801125 0
97 1 8 142.2304847496526 8.341368645562918 0
98 1 8 149.2143273599112 8.157948167812176 0
99 1 7 156.18303088638493 8.333747657629136 0
100 1 6 163.06056852881048 8.27582103112842 0
101 1 9 -3.2567181190267336 12.02080170954355 0
102 1 7 3.6753869157157717 12.088677732387922 0
103 1 6 10.769172699112097 12.080637207607495 0
104 1 7 17.392010501044478 12.106282098506455 0
105 1 7 24.645019548314593 12.094530650390562 0
106 1 6 31.54735089659106 12.266055127204929 0
107 1 7 38.131203886421744 12.02184460676858 0
108 1 5 45.215931305798044 12.354075815222206 0
109 1 5 52.20764318559768 12.144585524694389 0
110 1 5 59.15377148750275 12.307271581512786 0
111 1 7 65.92994099334459 12.135574412553805 0
112 1 6 72.95145631378253 12.30183972286236 0
113 1 7 79.90769260328038 12.051158414149512 0
114 1 7 86.69821285263313 12.35368850492331 0
115 1 6 93.63736048470363 12.122602108014334 0
116 1 7 100.46177997590412 12.322274597984377 0
117 1 5 107.6045944122179 12.309915855857106 0
118 1 5 114.58819797332531 12.185753267160184 0
119 1 5 121.56505914290908 12.164270728762204 0
120 1 7 128.4692568308596 12.019959326316846 0
121 1 6 135.17885740568917 12.212092783994132 0
122 1 7 142.09422553288144 12.252343743502927 0
123 1 7 149.20449368973198 12.018077267405628 0
124 1 6 156.10407858432197 12.362744207073867 0
125 1 7 162.90823499451685 12.337312475873992 0
126 1 8 0.10761488457412179 14.040078361647279 0
127 1 6 7.1299346854581795 14.041125328206368 0
128 1 6 14.1117283272415 14.367997755753375 0
129 1 6 20.94203818204565 14.365562800123982 0
130 1 6 28.089036214363947 14.039268972099723 0
131 1 6 34.92205959370391 14.222158606793245 0
132 1 8 41.763968561104605 14.111152900386756 0
133 1 5 48.76903121459601 14.04103328028241 0
134 1 5 55.776542638736416 14.157645685078052 0
135 1 8 62.54621690640313 14.29034193824335 0
136 1 6 69.65535529358853 14.20866761430261 0
137 1 6 76.38433906961501 14.015678438720578 0
138 1 6 83.34138498256851 14.121358757996687 0
139 1 6 90.0745680617268 14.318894170705532 0
140 1 6 97.15708703342283 14.289624509602943 0
141 1 8 104.07813555168889 14.018200318472184 0
142 1 5 110.99654614535163 14.1678606994729 0
143 1 5 118.02799102450344 14.187662087873111 0
144 1 8 124.99686785404859 14.016569526642337 0
145 1 6 131.67534105654 14.035202671595709 0
146 1 6 138.65534368565065 14.115863007481353 0
147 1 6 145.61155627726123 14.29786698771536 0
148 1 6 152.5136297393186 14.290859042156331 0
149 1 6 159.67780615411036 14.128041316445005 0
150 1 8 166.39465849379775 14.20404875213203 0
151 1 8 0.06324542126170045 18.223635258172358 0
152 1 6 7.260535548823816 18.07080070118548 0
153 1 6 14.217862320454838 18.22016977909506 0
154 1 6 20.975968507242438 18.387182183272238 0
155 1 6 28.079835951197573 18.37613364757735 0
156 1 6 34.71087724240564 18.03730857113764 0
157 1 8 41.80743371397138 18.18803630969024 0
158 1 5 48.53741906661978 18.21757956811157 0
159 1 5 55.58299000975764 18.259979007355728 0
160 1 8 62.65305168558466 18.073271933751567 0
161 1 6 69.66302244963329 18.375445175593043 0
162 1 6 76.3628439408068 18.14241234868958 0
163 1 6 83.13865299202276 18.29122672057971 0
164 1 6 90.41396319559801 18.07191643868575 0
165 1 6 97.32585414367868 18.098505599777702 0
166 1 8 104.08643811291668 18.31429575561182 0
167 1 5 110.92831870811392 18.126610839378166 0
168 1 5 117.88531624932446 18.188523065094355 0
169 1 8 124.94683474694743 18.232837724121357 0
170 1 6 131.6815720981366 18.172764547148677 0
171 1 6 138.694196558255 18.239485893883735 0
172 1 6 145.53454620206227 18.064394100794704 0
173 1 6 152.44474676317023 18.307826373914246 0
174 1 6 159.65771433724933 18.098389149662403 0
175 1 8 166.3911042461534 18.080262092422522 0
176 1 9 -3.1823374460747975 20.244141536319436 0
177 1 7 3.586156338422709 20.263726649005285 0
178 1 6 10.4597656734731 20.374916979083892 0
179 1 7 17.511390131910577 20.35202841922506 0
180 1 7 24.258912168139837 20.19463297943373 0
181 1 6 31.321417653368147 20.050235809945335 0
182 1 7 38.467127945116545 20.293509448035856 0
183 1 5 45.06173526066935 20.31418166713172 0
184 1 5 52.154014205985845 20.218130647313753 0
185 1 5 58.9025204091644 20.228083529731123 0
186 1 7 66.15940677795025 20.126412457502433 0
187 1 6 73.08899277211978 20.38961958206793 0
188 1 7 79.93538847727255 20.10958467119539 0
189 1 7 86.84861983456362 20.026726969084944 0
190 1 6 93.86384065001698 20.055529074801434 0
191 1 7 100.46739245460266 20.137321503267582 0
192 1 5 107.6077712811088 20.319645578218882 0
193 1 5 114.53316329719557 20.27719516482508 0
194 1 5 121.31488331936542 20.352526783365946 0
195 1 7 128.48831389896597 20.209432659182067 0
196 1 6 135.35375351015435 20.100886409534976 0
197 1 7 142.32110655467952 20.255340113267195 0
198 1 7 149.01204156836818 20.191143287373908 0
199 1 6 156.12272056137905 20.134181506079553 0
200 1 7 163.07579807259174 20.016505196085998 0
201 1 3 -3.4410219764710193 24.24280210065869 0
202 1 6 3.656282136596492 24.30471077956943 0
203 1 7 10.409319302001398 24.231283910666416 0
204 1 8 17.694067131471503 24.316074554926356 0
205 1 8 24.50175685768608 24.198980599068136 0
206 1 7 31.236116778730292 24.039678324740706 0
207 1 6 38.15563949668919 24.326862820117203 0
208 1 8 45.04160849243643 24.378391338508425 0
209 1 5 52.13997789825166 24.14182452255801 0
210 1 8 59.2579833206834 24.149010921224416 0
211 1 6 66.19765552577606 24.38319456764857 0
212 1 7 72.7844186967208 24.02052502693782 0
213 1 8 79.82556086653398 24.38621185385252 0
214 1 8 86.7500509416809 24.087649256089808 0
215 1 7 93.81419064174672 24.31376787855773 0
216 1 6 100.83347330214465 24.249278297269367 0
217 1 8 107.72573839582803 24.158224556457743 0
218 1 5 114.4276387182159 24.320298952430548 0
219 1 8 121.27519384939613 24.38047233007912 0
220 1 6 128.33871949782642 24.08250329518133 0
221 1 7 135.28405703895064 24.266907791391496 0
222 1 8 142.0520107585671 24.261705313423306 0
223 1 8 149.31785992879728 24.215403794447546 0
224 1 7 156.02696299703715 24.274587780243888 0
225 1 6 163.06746650277302 24.003186920639383 0
226 1 7 0.3059744930071506 26.12315561362349 0
227 1 6 7.149525096548354 26.244688839248628 0
228 1 8 14.195903695979935 26.052343146548733 0
229 1 5 20.974572378122048 26.327321126081962 0
230 1 8 28.02732133370246 26.28064684018325 0
231 1 6 34.98146571745862 26.144333836627954 0
232 1 7 41.87099586686966 26.1625134051812 0
233 1 8 48.67812884893425 26.136997375540297 0
234 1 8 55.660591612782255 26.310761075282667 0
235 1 7 62.61667670762937 26.381478951281412 0
236 1 6 69.59120591936261 26.305321614715336 0
237 1 8 76.43249161000743 26.178436570361757 0
238 1 5 83.28809927626938 26.38902178774843 0
239 1 8 90.33486915246627 26.222106656536333 0
240 1 6 97.31207859716959 26.171595254784656 0
241 1 7 104.07592487356467 26.318795666190468 0
242 1 8 111.22650844881541 26.028411014501188 0
243 1 8 118.15414803913266 26.214497913141326 0
244 1 7 124.71577328776061 26.315441637654096 0
245 1 6 131.65825688107913 26.123466008523803 0
246 1 8 138.61321485489617 26.17174519727809 0
247 1 5 145.81987447576557 26.138891950414678 0
248 1 8 152.768763527551 26.136762531292973 0
249 1 6 159.615748339478 26.073350795228574 0
250 1 7 166.38200617437806 26.254321567406123 0
251 1 6 0.3038524536225213 30.09809649264937 0
252 1 7 7.326888004954879 30.256738895797596 0
253 1 5 14.089724706454495 30.014632292238694 0
254 1 5 20.845153823960302 30.310073379510552 0
255 1 5 28.09263837036134 30.207287643932776 0
256 1 7 34.754407570451995 30.11585616142629 0
257 1 6 41.79348313756007 30.34120093017386 0
258 1 7 48.76297907904216 30.368424349036317 0
259 1 7 55.71758669719153 30.105785574472826 0
260 1 6 62.685491496873 30.116701240353795 0
261 1 7 69.45005981023459 30.31280453902065 0
262 1 5 76.26187664260267 30.184113309870348 0
263 1 5 83.50588762960929 30.20907337696278 0
264 1 5 90.45312671603557 30.185163408951087 0
265 1 7 97.25319337836008 30.35042634626027 0
266 1 6 104.23262120980263 30.09660900255431 0
267 1 7 111.18833583548991 30.069008905037588 0
268 1 7 118.09134420809401 30.389993663885104 0
269 1 6 124.7175469022208 30.365815233974168 0
270 1 7 131.72452539310243 30.034542133161242 0
271 1 5 138.6904922249432 30.383759926295152 0
272 1 5 145.71175986390315 30.08555538198158 0
273 1 5 152.4275881727464 30.388800671216288 0
274 1 7 159.51345147931676 30.239196278988942 0
275 1 6 166.38481135823716 30.09045506825022 0
276 1 2 -3.270072886054072 32.2464202105268 0
277 1 6 3.569808764979399 32.38029831646536 0
278 1 8 10.510801166744296 32.15083517181151 0
279 1 5 17.638317991898216 32.34252111957926 0
280 1 5 24.54145469236807 32.33851813492922 0
281 1 8 31.4696428701541 32.322689034873974 0
282 1 6 38.350438705589895 32.3919006942259 0
283 1 6 45.21419350609923 32.389045814109 0
284 1 6 52.2158022604468 32.313475872612116 0
285 1 6 59.18775632825056 32.27004327170256 0
286 1 6 66.17266492122845 32.06681747570285 0
287 1 8 73.09315133339321 32.321524493541176 0
288 1 5 79.75876658202947 32.27649004636713 0
289 1 5 86.68858647486125 32.135957865348736 0
290 1 8 93.92494334151223 32.38256703547689 0
291 1 6 100.53609276294242 32.17122304691283 0
292 1 6 107.42672080466502 32.24869299747731 0
293 1 6 114.66569940337386 32.010318020559325 0
294 1 6 121.57534252398513 32.243845486079685 0
295 1 6 128.21317357817657 32.21871288157794 0
296 1 8 135.49087462343664 32.20969574385702 0
297 1 5 142.02856274320965 32.03569524298499 0
298 1 5 149.32408516720508 32.2054481132331 0
299 1 8 155.97150897415918 32.214827743926925 0
300 1 6 162.84294342778355 32.387730491463216 0
301 1 2 -3.1954673887563327 36.23452375426816 0
302 1 6 3.5678137835843358 36.24955269558544 0
303 1 8 10.70167502655443 36.29633535429704 0
304 1 5 17.44546129518767 36.02501143749745 0
305 1 5 24.27469873869078 36.263398903568266 0
306 1 8 31.255212335660808 36.23356216701204 0
307 1 6 38.37659400852854 36.10971242574222 0
308 1 6 45.275102698046084 36.059966548673515 0
309 1 6 52.34727908286229 36.325338905680184 0
310 1 6 58.93511714444807 36.3759574909921 0
311 1 6 66.07115964594706 36.12452475007756 0
312 1 8 72.82362564810434 36.029479889374684 0
313 1 5 79.70387787712117 36.00840167051789 0
314 1 5 86.96587502103418 36.05029725129941 0
315 1 8 93.53469800955264 36.35253828234856 0
316 1 6 100.48344943716786 36.30424173160013 0
317 1 6 107.45277448889495 36.16103334052547 0
318 1 6 114.60302767497718 36.22669331382949 0
319 1 6 121.31661137687712 36.09756743860528 0
320 1 6 128.20683403283476 36.36949108957893 0
321 1 8 135.21811337333241 36.06213352984827 0
322 1 5 142.09651951268245 36.215985407738295 0
323 1 5 149.33760647817806 36.223561886035476 0
324 1 8 156.04658854922022 36.18199072384792 0
325 1 6 162.87737687062756 36.105672977182365 0
326 1 6 0.09954814154242086 38.10657596657854 0
327 1 7 7.02867266583834 38.05340912659432 0
328 1 5 14.198718786887737 38.35213560197172 0
329 1 5 20.9615472786953 38.23380011060901 0
330 1 5 27.951392397552183 38.108365245629 0
331 1 7 34.91220945732812 38.17996964824294 0
332 1 6 41.86578431459966 38.35547464056215 0
333 1 7 48.497686995997114 38.09792619890913 0
334 1 7 55.58955671003425 38.2766608880963 0
335 1 6 62.6248438843384 38.35860388654548 0
336 1 7 69.62465319087774 38.36114909179695 0
337 1 5 76.55507004476785 38.049712816788094 0
338 1 5 83.31490547044913 38.25147862136929 0
339 1 5 90.25600158404538 38.266655028266584 0
340 1 7 97.39476490185298 38.072801286416954 0
341 1 6 104.13303378862213 38.27808098200559 0
342 1 7 110.94384495537359 38.17283183298065 0
343 1 7 118.09151258723855 38.394890878054234 0
344 1 6 125.00914582839359 38.2141794161746 0
345 1 7 131.70404161006837 38.28982096152077 0
346 1 5 138.58998086703036 38.01579271242996 0
347 1 5 145.58658943820694 38.05276446417404 0
348 1 5 152.65222678697123 38.34371084825886 0
349 1 7 159.66392547306666 38.095657242166276 0
350 1 6 166.3958026213035 38.09289873660964 0
351 1 7 0.09419859481700509 42.35520931984167 0
352 1 6 7.174827081750337 42.05420187790696 0
353 1 8 13.868185357583604 42.31124099349829 0
354 1 5 20.949552054579367 42.31669388955586 0
355 1 8 27.841916517857562 42.2711988178729 0
356 1 6 34.91082719526574 42.38243710773801 0
357 1 7 41.90685749684967 42.11725760229238 0
358 1 8 48.637215670536506 42.18345605989631 0
359 1 8 55.628565106641005 42.225095444014784 0
360 1 7 62.39092325728368 42.14788105292872 0
361 1 6 69.4953887481102 42.128404821841094 0
362 1 8 76.31793617733469 42.16364109432669 0
363 1 5 83.48666683193957 42.10354956257017 0
364 1 8 90.3181515128327 42.324519278904184 0
365 1 6 97.05091454380398 42.33674140077689 0
366 1 7 103.95913911350901 42.12807119200115 0
367 1 8 111.06559323250428 42.20150170028885 0
368 1 8 117.97394510815724 42.272347126977536 0
369 1 7 124.99634085198993 42.201060888674135 0
370 1 6 131.75175695063407 42.02447610687543 0
371 1 8 138.65706020720685 42.0627823194478 0
372 1 5 145.58328940239534 42.24344721872646 0
373 1 8 152.55540111709198 42.30968449379511 0
374 1 6 159.45429247220693 42.35956155954881 0
375 1 7 166.62323278183442 42.23298439000677 0
376 1 3 -3.329094101289478 44.046481564269484 0
377 1 6 3.7354620872530817 44.21680732638105 0
378 1 7 10.730194795269265 44.1222924218632 0
379 1 8 17.534784353417535 44.210900658800355 0
380 1 8 24.476980593241603 44.10598330535766 0
381 1 7 31.44899582429419 44.19192998158229 0
382 1 6 38.42608109318074 44.0181367569314 0
383 1 8 45.39109662474769 44.347143844736706 0
384 1 5 52.04018863812217 44.209876385209434 0
385 1 8 59.274251184488705 44.034475831078474 0
386 1 6 66.10698807164962 44.34353456646588 0
387 1 7 73.00773588248421 44.159096484507266 0
388 1 8 79.8954807172927 44.30365105531039 0
389 1 8 86.98277706575486 44.33270499404884 0
390 1 7 93.79813512968784 44.347097302885885 0
391 1 6 100.53774957029262 44.34588843563794 0
392 1 8 107.55993385264699 44.25215170378778 0
393 1 5 114.63712047038264 44.242357176000475 0
394 1 8 121.40971679652846 44.27996407134781 0
395 1 6 128.53330119413656 44.28909262978663 0
396 1 7 135.2530413135094 44.07414500696038 0
397 1 8 142.13230010450653 44.33424212580677 0
398 1 8 149.30085461614513 44.35262263642704 0
399 1 7 156.22662421197268 44.26935891787491 0
400 1 6 163.02627099151167 44.08633758320512 0
401 1 9 -3.068437201669274 48.07270326913909 0
402 1 7 3.7564474013042077 48.19071738236316 0
403 1 6 10.617943009087341 48.229331234119634 0
404 1 7 17.52921401269485 48.15268784191628 0
405 1 7 24.458130695585492 48.37191292062509 0
406 1 6 31.431153674928737 48.2304596961354 0
407 1 7 38.44005780719247 48.064367846266656 0
408 1 5 45.364470648759706 48.2427828864075 0
409 1 5 51.96746026135825 48.37481771560103 0
410 1 5 59.12653922174311 48.364932437424734 0
411 1 7 65.84359601313679 48.14868253564227 0
412 1 6 72.83014460394273 48.138486165597634 0
413 1 7 79.89023381036834 48.23135959197158 0
414 1 7 86.72290723321204 48.12172913434367 0
415 1 6 93.78123576825371 48.14827364184167 0
416 1 7 100.50981117919052 48.384019729957764 0
417 1 5 107.5822034741778 48.09656244841298 0
418 1 5 114.55585030491855 48.38055464228615 0
419 1 5 121.39890470534307 48.33570517947273 0
420 1 7 128.55842384677578 48.07858844564465 0
421 1 6 135.14161622242534 48.145009996464815 0
422 1 7 142.06443070926355 48.001896471312016 0
423 1 7 149.1282246625892 48.032092719676655 0
424 1 6 155.9718866967634 48.232473623466085 0
425 1 7 162.85890221155432 48.25672347257961 0
426 1 8 0.3172673296331234 50.042304055502846 0
427 1 6 7.293631867991856 50.07836464692098 0
428 1 6 14.076070268615164 50.14445376063483 0
429 1 6 21.08951800946697 50.32951015802484 0
430 1 6 27.858047438024105 50.06572353412673 0
431 1 6 34.82708293469842 50.22626551245091 0
432 1 8 41.59621823022665 50.03884538868163 0
433 1 5 48.67537737994437 50.14250803520675 0
434 1 5 55.65706818860117 50.22257133585746 0
435 1 8 62.42943125904639 50.20264758034677 0
436 1 6 69.65519963747201 50.10556948169203 0
437 1 6 76.45094224709734 50.05444675227036 0
438 1 6 83.29600972270657 50.35049514739512 0
439 1 6 90.32668537032552 50.04263965307041 0
440 1 6 97.11311736001629 50.14973194725754 0
441 1 8 104.18814373019377 50.21487021309368 0
442 1 5 111.1093976589505 50.24811007036682 0
443 1 5 117.94180848452129 50.10755414762383 0
444 1 8 124.75562939077963 50.187153304536295 0
445 1 6 131.77970615024196 50.218280893062634 0
446 1 6 138.88159397886517 50.123663263548806 0
447 1 6 145.50284938684453 50.33648241835985 0
448 1 6 152.66429572601814 50.20494184653942 0
449 1 6 159.67789941280392 50.06098540437491 0
450 1 8 166.39037744582046 50.27796186498 0
451 1 8 0.09630941590209643 54.02367361815798 0
452 1 6 7.142421834851389 54.180495161636436 0
453 1 6 14.082640310626486 54.32008852823829 0
454 1 6 20.871895135939535 54.28686473093127 0
455 1 6 28.032477786350544 54.22407318032297 0
456 1 6 34.934558377860846 54.207838880556196 0
457 1 8 41.58591937220221 54.209132155457326 0
458 1 5 48.604817373129556 54.04104826673228 0
459 1 5 55.630338994003814 54.07105500130309 0
460 1 8 62.57791027346246 54.15085853590823 0
461 1 6 69.45493909368446 54.01510453110298 0
462 1 6 76.31380857102228 54.24908342265372 0
463 1 6 83.17900056898408 54.29235244816254 0
464 1 6 90.1882021144928 54.266037603586014 0
465 1 6 97.12574390436977 54.19072150514509 0
466 1 8 104.14431933990988 54.32616502954679 0
467 1 5 111.08768429025223 54.38677747680272 0
468 1 5 117.90919975487711 54.36925915671405 0
469 1 8 124.77755735697954 54.225290013368785 0
470 1 6 131.86467839843013 54.287366720431855 0
471 1 6 138.86833338556738 54.21040541139985 0
472 1 6 145.59655172083438 54.081512522288094 0
473 1 6 152.70473796305035 54.20255487576065 0
474 1 6 159.41120043306927 54.21892133267159 0
475 1 8 166.4512398064487 54.12112220113843 0
476 1 9 -3.0887486088237637 56.399729222463726 0
477 1 7 3.5680292953009154 56.05507485782939 0
478 1 6 10.504677656877648 56.216892555352096 0
479 1 7 17.574164531235425 56.079304761350265 0
480 1 7 24.453205312324062 56.098486816807174 0
481 1 6 31.409303095311934 56.29253981058488 0
482 1 7 38.37079059587806 56.08044222647826 0
483 1 5 45.39198513633312 56.28581483387453 0
484 1 5 52.310890801254025 56.30534063170992 0
485 1 5 59.12476761108577 56.20741933667315 0
486 1 7 65.82796558862772 56.12810300984352 0
487 1 6 72.93749418879628 56.2055705247134 0
488 1 7 79.81893838191307 56.065485071605906 0
489 1 7 86.9255938244572 56.0160180668152 0
490 1 6 93.88478699990978 56.176939852007244 0
491 1 7 100.52543292312657 56.179823418597216 0
492 1 5 107.5766507449115 56.3583415886917 0
493 1 5 114.63685397432003 56.03420400460196 0
494 1 5 121.29690502795887 56.16406662756597 0
495 1 7 128.39216225633672 56.32732179164464 0
496 1 6 135.105647786308 56.38691372215275 0
497 1 7 142.38902318757377 56.16158751876344 0
498 1 7 149.02389972534272 56.048022898021046 0
499 1 6 155.9980383173978 56.24641827028341 0
500 1 7 163.13670980632202 56.16387958625992 0
501 1 3 -3.38782736724021 60.10636366460925 0
502 1 6 3.4933042944035564 60.26032775799861 0
503 1 7 10.492427471281935 60.203465404278646 0
504 1 8 17.408330028769527 60.323856735950365 0
505 1 8 24.571950449780076 60.135758813654306 0
506 1 7 31.279667734315865 60.0898623517209 0
507 1 6 38.29495606434717 60.128083260994124 0
508 1 8 45.34394763050305 60.300668537409955 0
509 1 5 52.15228469212679 60.081306301128215 0
510 1 8 59.2528279618732 60.170311381545105 0
511 1 6 65.86660558828869 60.33944864390608 0
512 1 7 73.01034862931577 60.17098916663397 0
513 1 8 79.67876493080941 60.10923716540864 0
514 1 8 86.77127117422847 60.053503855071504 0
515 1 7 93.6252075103009 60.29646110458292 0
516 1 6 100.71572879907173 60.319025117268666 0
517 1 8 107.69465944893267 60.29947753039496 0
518 1 5 114.43824939847234 60.07821299784931 0
519 1 8 121.55666263344028 60.10887537375259 0
520 1 6 128.40048792692573 60.18984492435475 0
521 1 7 135.3104857490019 60.337937514691106 0
522 1 8 142.29641086992243 60.36280903018601 0
523 1 8 149.35218177774047 60.374919406198686 0
524 1 7 156.01325700811552 60.17966878179407 0
525 1 6 162.85529096867933 60.15390659618691 0
526 1 7 0.15320991999025113 62.38806782414086 0
527 1 6 7.286556701613759 62.25869159472565 0
528 1 8 14.076352888587726 62.127138777664165 0
529 1 5 21.07033408412116 62.21661046482988 0
530 1 8 28.086466594248662 62.09879197396096 0
531 1 6 34.681126771695915 62.18042969149706 0
532 1 7 41.751019105977434 62.16356246831035 0
533 1 8 48.63367924794761 62.268940118877545 0
534 1 8 55.557594073687696 62.120952326855715 0
535 1 7 62.74640255476876 62.07350803088645 0
536 1 6 69.64908554948903 62.176273754308454 0
537 1 8 76.53556283731234 62.272112111751646 0
538 1 5 83.38200103827796 62.365674626935075 0
539 1 8 90.16442447172325 62.05868984997336 0
540 1 6 97.21508544598314 62.01369719591631 0
541 1 7 103.97652215102994 62.3873832671217 0
542 1 8 110.85503650619809 62.13456089420679 0
543 1 8 117.92561081168006 62.181255631725314 0
544 1 7 124.89674916628731 62.205762495696014 0
545 1 6 131.76192155357006 62.158357925751346 0
546 1 8 138.89269521633793 62.38134983973586 0
547 1 5 145.87855063349417 62.194342207267994 0
548 1 8 152.6290070929469 62.04485244888898 0
549 1 6 159.69773881965125 62.29747308901226 0
550 1 7 166.61026024855684 62.17378831970986 0
551 1 6 0.0044687436657103955 66.35313985272444 0
552 1 7 7.234964473463666 66.1292927928555 0
553 1 5 13.874226874761263 66.20761503852756 0
554 1 5 20.89531507186391 66.36431676899147 0
555 1 5 27.74878617097814 66.15039687029585 0
556 1 7 34.76076241074829 66.08725032912635 0
557 1 6 41.70237376994654 66.21485384413273 0
558 1 7 48.54959643043988 66.00860922785698 0
559 1 7 55.661531369531225 66.2441333161485 0
560 1 6 62.61055027308765 66.01598639186855 0
561 1 7 69.33100091862215 66.2066390972076 0
562 1 5 76.40632817461825 66.17594044833423 0
563 1 5 83.48090399897646 66.23196842336051 0
564 1 5 90.22612321297558 66.05211310093704 0
565 1 7 97.08676148172856 66.16602572062946 0
566 1 6 104.26050197298609 66.19338312907149 0
567 1 7 111.21021842761115 66.31490092643634 0
568 1 7 117.81181714255814 66.13451540115335 0
569 1 6 124.92839034805642 66.39779281467261 0
570 1 7 131.81268086295236 66.1646982291999 0
571 1 5 138.79447376277645 66.0967620908541 0
572 1 5 145.81063388475332 66.14970511283387 0
573 1 5 152.56730264194147 66.18921107776433 0
574 1 7 159.55148621837276 66.23841922849941 0
575 1 6 166.57204406151618 66.39310548665713 0
576 1 2 -3.1382037145898773 68.20475905112998 0
577 1 6 3.7105398204146125 68.26514423256971 0
578 1 8 10.617789516427058 68.09598786729224 0
579 1 5 17.64992771901298 68.35307937615967 0
580 1 5 24.478254129267736 68.032094889367 0
581 1 8 31.209067708464396 68.20704087318367 0
582 1 6 38.45579769478517 68.30811414901756 0
583 1 6 45.30844613387882 68.29336483305528 0
584 1 6 52.13898685642675 68.32915937400007 0
585 1 6 59.18405571337724 68.3613320254316 0
586 1 6 66.05592194911371 68.07116044699718 0
587 1 8 72.85704339116789 68.35174464344321 0
588 1 5 80.06158039201647 68.16188430257851 0
589 1 5 86.69098566174948 68.30578110872311 0
590 1 8 93.80497484797867 68.16757758500174 0
591 1 6 100.65136594949071 68.24009323202895 0
592 1 6 107.73672271148604 68.03701473304221 0