
14309 atoms
14896 bonds
16659 angles
19 atom types
6 bond types
14 angle types

-5.680607966083864 171.52447279080386 xlo xhi
-2.0 148.0 ylo yhi
-4 4 zlo zhi


Masses

1 0.0002715005302226935
2 0.0006170466595970307
3 0.00041959172852598094
4 0.000543001060445387
5 0.0008885471898197242
6 0.0007404559915164369
7 0.0006910922587486744
8 0.0005923647932131495
9 0.000641728525980912
10 0.0004442735949098621
11 0.0008885471898197241
12 0.00046895546129374334
13 0.0003455461293743372
14 0.000543001060445387
15 0.0006910922587486744
16 0.00039490986214209966
17 0.0004442735949098621
18 0.0004936373276776246
19 0.0003455461293743372

Pair Coeffs

1 0.40509979849834776 0.44544935907016964 0.5
2 0.40509979849834776 0.44544935907016964 0.5
3 0.40509979849834776 0.44544935907016964 0.5
4 0.40509979849834776 0.44544935907016964 0.5
5 0.40509979849834776 0.44544935907016964 0.5
6 0.40509979849834776 0.44544935907016964 0.5
7 0.40509979849834776 0.44544935907016964 0.5
8 0.40509979849834776 0.44544935907016964 0.5
9 0.40509979849834776 0.44544935907016964 0.5
10 0.40509979849834776 0.44544935907016964 0.5
11 0.40509979849834776 0.44544935907016964 0.5
12 0.40509979849834776 0.44544935907016964 0.5
13 0.40509979849834776 0.44544935907016964 0.5
14 0.40509979849834776 0.44544935907016964 0.5
15 0.40509979849834776 0.44544935907016964 0.5
16 0.40509979849834776 0.44544935907016964 0.5
17 0.40509979849834776 0.44544935907016964 0.5
18 0.40509979849834776 0.44544935907016964 0.5
19 0.40509979849834776 0.44544935907016964 0.5

Bond Coeffs

1 108.6002120890774 0.5
2 138.2184517497349 0.5
3 78.98197242841994 0.5
4 88.85471898197243 0.5
5 98.72746553552491 0.5
6 69.10922587486745 0.5

Angle Coeffs

1 10.673596334374508 180
2 22.004769602947903 180
3 4.105846223290571 180
4 5.846019329646144 180
5 8.019230904864395 180
6 2.750596200368488 180
7 14.374649492772344 120
8 4.8237903251874705 120
9 4.096196873221873 120
10 10.673596334374508 120
11 5.930419232989418 120
12 6.7623127005739105 120
13 5.846019329646144 120
14 2.750596200368488 120

Atoms

1 1 1 -3.186314711554896 0.30371394842788924 0
2 1 2 3.8430842568762684 0.08815574766270783 0
3 1 3 10.651255449412002 0.0036120134518654815 0
4 1 3 17.63379220095728 0.382981049445772 0
5 1 3 24.525557232015952 0.12487432596261261 0
6 1 3 31.48684293640454 0.30668408843268424 0
7 1 2 38.489833722966075 0.3991299679918011 0
8 1 4 45.03911449100357 0.37824418477621946 0
9 1 4 52.01495413740889 0.1820606671288421 0
10 1 4 59.0965948565491 0.2554129041818375 0
11 1 2 65.94995639500007 0.2447178669898077 0
12 1 3 72.99775681007635 0.36536023319845995 0
13 1 3 79.70199592639231 0.2886450446100867 0
14 1 3 86.76830507349719 0.22032111463392426 0
15 1 3 93.67028660851874 0.3826194809817144 0
16 1 2 100.7011601407379 0.1931392001901589 0
17 1 4 107.43443154708906 0.3135867377034947 0
18 1 4 114.590713983707 0.24235363851684633 0
19 1 4 121.53571780411691 0.04062642161099346 0
20 1 2 128.4161066636423 0.36719618443021174 0
21 1 3 135.32293100877408 0.04845707311162198 0
22 1 3 142.20405589581932 0.1131181742085564 0
23 1 3 149.3446195016434 0.2829138974588862 0
24 1 3 156.19825932371597 0.36759050155061607 0
25 1 2 163.0866093852351 0.11170804446238498 0
26 1 5 0.00797955229995755 2.0815458952786825 0
27 1 6 6.961542875531362 2.3467811773170126 0
28 1 7 14.156908289339512 2.0587207893576207 0
29 1 8 20.978461135585253 2.1192605101794624 0
30 1 7 27.773528455408474 2.3475421760324746 0
31 1 6 34.97512270855282 2.1619553051805553 0
32 1 5 41.69680888355882 2.321224108443476 0
33 1 6 48.528964796736524 2.2382943298259037 0
34 1 6 55.4885921535573 2.1568042027179453 0
35 1 5 62.38967651213278 2.1806558956851756 0
36 1 6 69.55383624344825 2.1091639581219077 0
37 1 7 76.33978681381097 2.265713966898728 0
38 1 8 83.25785249346977 2.1793106578699177 0
39 1 7 90.2734587624921 2.2646941034916472 0
40 1 6 97.09876934517361 2.3113301085717515 0
41 1 5 103.99372182537715 2.2680273409099523 0
42 1 6 110.89250435117145 2.0870887061548755 0
43 1 6 117.90802235857929 2.3599302642573603 0
44 1 5 124.91836077441724 2.3662653538316505 0
45 1 6 131.96300364692755 2.1881974126900987 0
46 1 7 138.74269722782162 2.1494716889247103 0
47 1 8 145.6179865521339 2.2672577564949994 0
48 1 7 152.44869720993972 2.1397856297993205 0
49 1 6 159.45939052843858 2.2517418373706675 0
50 1 5 166.35862686679363 2.3524065740306463 0
51 1 6 0.06963351580280648 6.354281657244952 0
52 1 5 7.043118612128317 6.341981888909767 0
53 1 9 14.195471630280826 6.249023601961219 0
54 1 7 21.036265866788703 6.293556007163127 0
55 1 9 27.87113872154973 6.337837713315496 0
56 1 5 34.820632437939196 6.349897886612582 0
57 1 6 41.79849904910595 6.23547731028253 0
58 1 9 48.89134307269553 6.115454675365273 0
59 1 9 55.69393789213384 6.351514502602251 0
60 1 6 62.61019990595732 6.087101646837566 0
61 1 5 69.60075897975398 6.375702746126866 0
62 1 9 76.21040041676049 6.18305754822256 0
63 1 7 83.18661084899523 6.148722342479694 0
64 1 9 90.1745179674815 6.037775657573301 0
65 1 5 97.00899202178448 6.156679884955332 0
66 1 6 104.05275587721788 6.303098002746808 0
67 1 9 111.17933004907077 6.281357167839263 0
68 1 9 118.1418622474331 6.156890551261613 0
69 1 6 124.8497190497412 6.342268666471629 0
70 1 5 131.69538991783816 6.107564472291206 0
71 1 9 138.7983127378844 6.271369238909294 0
72 1 7 145.67306189871383 6.288033088387714 0
73 1 9 152.8150750791794 6.268056619494415 0
74 1 5 159.51693905151933 6.208562248019129 0
75 1 6 166.40222830065622 6.039290553996927 0
76 1 3 -3.2936490204587137 8.192821179960939 0
77 1 5 3.7616139640008033 8.143973976155086 0
78 1 6 10.496185131849224 8.284543861247657 0
79 1 9 17.42547118802025 8.03874344801229 0
80 1 9 24.59540658804766 8.298089413329247 0
81 1 6 31.211232663667808 8.324145896863374 0
82 1 5 38.20781263329344 8.219423281823843 0
83 1 9 45.06616192885861 8.368187309985817 0
84 1 7 52.13154096169605 8.197505833929888 0
85 1 9 59.09950395117143 8.19177260168431 0
86 1 5 65.8833112663619 8.316649355695727 0
87 1 6 72.96737374270229 8.189279696140154 0
88 1 9 79.76321011725999 8.060510421876657 0
89 1 9 86.97684969047727 8.054778193749849 0
90 1 6 93.68442356651727 8.163424935696204 0
91 1 5 100.57025171747978 8.39519945909634 0
92 1 9 107.70222415554677 8.289233907108127 0
93 1 7 114.63899891759121 8.287344570611998 0
94 1 9 121.38371329368303 8.320927756628226 0
95 1 5 128.44030964812188 8.044264381212548 0
96 1 6 135.2340901318194 8.28291119479931 0
97 1 9 142.22268587305263 8.275626066711466 0
98 1 9 149.2632030451914 8.165191627394101 0
99 1 6 156.1472985358842 8.034941062428095 0
100 1 5 162.93196073242618 8.138393423501661 0
101 1 10 -3.3333952269064646 12.300869341600642 0
102 1 6 3.7416535985918546 12.220719207856904 0
103 1 5 10.63151265114872 12.063965162881761 0
104 1 6 17.49867748634905 12.200179878762064 0
105 1 6 24.57166488023243 12.217291519148134 0
106 1 5 31.491630089136425 12.156596522118301 0
107 1 6 38.45802784260632 12.304543707630316 0
108 1 7 45.08832163797429 12.196489304475111 0
109 1 8 52.068125212845715 12.232201788343746 0
110 1 7 58.98199998257034 12.34291450134553 0
111 1 6 66.0035587114321 12.227965947971635 0
112 1 5 73.05513538718003 12.388243481848017 0
113 1 6 79.90025245623376 12.045164209059147 0
114 1 6 86.86268352503403 12.261725527571476 0
115 1 5 93.89751975251532 12.185124586969147 0
116 1 6 100.72101931671236 12.064175094961174 0
117 1 7 107.42177946679553 12.208301076366558 0
118 1 8 114.45731415458252 12.125944905428913 0
119 1 7 121.3429118137882 12.039050374218897 0
120 1 6 128.4553113250429 12.115653432586889 0
121 1 5 135.28442563220705 12.28613314309813 0
122 1 6 142.28935849260503 12.216622412133471 0
123 1 6 149.01188113127523 12.06753680820584 0
124 1 5 155.9849136444274 12.098859662790826 0
125 1 6 163.01280719289184 12.338713931231217 0
126 1 9 0.38332974065442704 14.357156814005439 0
127 1 5 7.00042767390721 14.117731858445502 0
128 1 11 13.98843222189669 14.03200528087269 0
129 1 11 21.112458532576884 14.391083544718896 0
130 1 11 28.051627543712858 14.268864653145604 0
131 1 5 35.02419216955711 14.189104943574321 0
132 1 9 41.853947707406554 14.298785651846933 0
133 1 8 48.678880017609536 14.029395669219069 0
134 1 8 55.65882632981187 14.23209183761041 0
135 1 9 62.4542881542776 14.264521114681258 0
136 1 5 69.30934539939558 14.046598054985022 0
137 1 11 76.29372440910684 14.22722379408534 0
138 1 11 83.2689073830191 14.232395047199274 0
139 1 11 90.43494761252974 14.21519397417318 0
140 1 5 97.17728149548952 14.056560348707281 0
141 1 9 104.22363875309225 14.261310677545872 0
142 1 8 111.07743021581842 14.044813968723037 0
143 1 8 118.09510664237254 14.1778338712163 0
144 1 9 124.86847368005232 14.152887611299644 0
145 1 5 131.6466152784408 14.251321546821758 0
146 1 11 138.67858104716353 14.292280016623407 0
147 1 11 145.52067750309988 14.127977333770248 0
148 1 11 152.5767257114248 14.276898245761227 0
149 1 5 159.54838534999507 14.06910963569459 0
150 1 9 166.49520580457514 14.156853877434003 0
151 1 9 0.15894585590054475 18.374859067902687 0
152 1 5 6.961688692889067 18.31637045572576 0
153 1 11 14.092564368056905 18.233230986524188 0
154 1 11 20.897942056024686 18.335378696267323 0
155 1 11 27.89541722892878 18.05016189214572 0
156 1 5 34.78932172395244 18.17781444476631 0
157 1 9 41.90227610364242 18.03356111957134 0
158 1 8 48.74889120925663 18.08839818452182 0
159 1 8 55.70379321166459 18.177912741103583 0
160 1 9 62.448422767342414 18.24280615525945 0
161 1 5 69.40090070945044 18.171796430799628 0
162 1 11 76.50326228828536 18.029655518674623 0
163 1 11 83.48962096639978 18.27604558306607 0
164 1 11 90.13064676407842 18.381047667293117 0
165 1 5 97.07559508819367 18.234449947260767 0
166 1 9 104.00573061030703 18.131959511831766 0
167 1 8 111.18246706015613 18.31503314956086 0
168 1 8 117.96882216168524 18.068038217739637 0
169 1 9 124.72556432650504 18.312574368971347 0
170 1 5 131.77754181133622 18.215135313505204 0
171 1 11 138.60926395552482 18.324316038136523 0
172 1 11 145.59647948643217 18.219795259690798 0
173 1 11 152.58009652718115 18.255969792729818 0
174 1 5 159.4542542888727 18.308490705060564 0
175 1 9 166.3838587503709 18.241843852743933 0
176 1 10 -3.416455876890734 20.097333014784947 0
177 1 6 3.8408497169226576 20.00698706430978 0
178 1 5 10.49938933923062 20.36751956135588 0
179 1 6 17.345936842337537 20.269489523574755 0
180 1 6 24.2491759459418 20.164291420156395 0
181 1 5 31.334801158837266 20.383868594493162 0
182 1 6 38.11870828389681 20.085394587185363 0
183 1 7 45.249960645306025 20.388947590162072 0
184 1 8 52.21941223887344 20.350627238637273 0
185 1 7 59.12394597215163 20.150453771414522 0
186 1 6 65.82019279081591 20.20097538980352 0
187 1 5 72.94915932534414 20.290126319306925 0
188 1 6 79.76204595010918 20.016460005951114 0
189 1 6 86.64663352242735 20.316060256783334 0
190 1 5 93.9046967078308 20.03473657482998 0
191 1 6 100.79327721201003 20.09048003776379 0
192 1 7 107.74537707255587 20.386048357912248 0
193 1 8 114.55555615989275 20.336118004669615 0
194 1 7 121.38958730037956 20.131390142044566 0
195 1 6 128.26863536137898 20.36664136578977 0
196 1 5 135.4470815177205 20.33250214849067 0
197 1 6 142.15607053433843 20.10082356915209 0
198 1 6 149.2883299227741 20.296723512235207 0
199 1 5 156.24729672958622 20.067328469822883 0
200 1 6 162.88493033465502 20.199411724708277 0
201 1 3 -3.409600644911204 24.363039510186507 0
202 1 5 3.748770384230356 24.051358469843912 0
203 1 6 10.499557825634414 24.367748663358114 0
204 1 9 17.48711136498122 24.176496633682497 0
205 1 9 24.63107867653246 24.07621075955246 0
206 1 6 31.266897678166167 24.123428194159427 0
207 1 5 38.356352434015825 24.025420146282034 0
208 1 9 45.09260918310998 24.299645649276844 0
209 1 7 52.26155765085191 24.1433297199013 0
210 1 9 58.89535349394876 24.358680293060438 0
211 1 5 66.06485928083289 24.107282905418195 0
212 1 6 72.84285517428175 24.07348021350419 0
213 1 9 79.89012728362854 24.044759588068978 0
214 1 9 86.76168321024605 24.1750661648276 0
215 1 6 93.89418573707896 24.070714512858302 0
216 1 5 100.83783118023835 24.343993960120358 0
217 1 9 107.73936683701801 24.15587137911657 0
218 1 7 114.67435474790588 24.1543241417947 0
219 1 9 121.36185101636494 24.024130861431964 0
220 1 5 128.21749901781791 24.364928406937157 0
221 1 6 135.25930910045102 24.155186042803546 0
222 1 9 142.40989717183746 24.08940960684411 0
223 1 9 149.1974467948424 24.084274843812086 0
224 1 6 156.2502564155217 24.072773874329595 0
225 1 5 162.84901013847735 24.298216749512044 0
226 1 6 0.34812767498656183 26.34153559465223 0
227 1 5 7.156072843930124 26.181872555941542 0
228 1 9 13.911089076870049 26.388029567569145 0
229 1 7 21.17408308223308 26.11415605827945 0
230 1 9 27.953688661811203 26.14239142217661 0
231 1 5 34.82351762859767 26.075711831171084 0
232 1 6 41.61295451796691 26.384196920940095 0
233 1 9 48.59745441949577 26.33161740856104 0
234 1 9 55.71710013558993 26.28525403371399 0
235 1 6 62.373463616603146 26.295659044291263 0
236 1 5 69.39372248835468 26.35357056128211 0
237 1 9 76.30605401355005 26.13168859744279 0
238 1 7 83.2680272071771 26.382469636274664 0
239 1 9 90.37650149643707 26.357283982761697 0
240 1 5 97.09345958902401 26.034953967132445 0
241 1 6 104.12033151899104 26.165559963825892 0
242 1 9 111.03090700126361 26.007963304387463 0
243 1 9 118.13128859504448 26.083719268197925 0
244 1 6 124.79154037402502 26.100382899076397 0
245 1 5 131.8784883758826 26.26067615297807 0
246 1 9 138.78544658801943 26.383157618124383 0
247 1 7 145.58154862675306 26.192735382435423 0
248 1 9 152.45318989044952 26.30143787829382 0
249 1 5 159.54901101105165 26.114208437251143 0
250 1 6 166.56496019727152 26.080234811107864 0
251 1 5 0.283517587125797 30.07382462466295 0
252 1 6 7.221900368603353 30.120668213829116 0
253 1 7 14.120367724999886 30.17923282634817 0
254 1 8 20.82428640632939 30.05415622455879 0
255 1 7 28.05473808711308 30.103044888382883 0
256 1 6 34.73090761618618 30.10443033890774 0
257 1 5 41.93607583350299 30.204463662332586 0
258 1 6 48.545762261730644 30.280647828257347 0
259 1 6 55.64577108209035 30.095373612754734 0
260 1 5 62.42332362869033 30.319966152841452 0
261 1 6 69.29350377550412 30.316074638596994 0
262 1 7 76.39808647199955 30.007449626196433 0
263 1 8 83.29579256213262 30.130659402520873 0
264 1 7 90.2182191857563 30.28261459509329 0
265 1 6 97.21582814970157 30.358404064953135 0
266 1 5 104.26112433130017 30.179579936002376 0
267 1 6 111.19340078509978 30.26701018326564 0
268 1 6 117.86346001391999 30.108144640204202 0
269 1 5 124.8839077926618 30.343046599904408 0
270 1 6 131.76985556131825 30.305871017470032 0
271 1 7 138.61416642537694 30.03190193799556 0
272 1 8 145.88755750399972 30.100305784851336 0
273 1 7 152.5023839607827 30.291288901866253 0
274 1 6 159.5541365678865 30.07272268048553 0
275 1 5 166.29599975460394 30.139118108092305 0
276 1 2 -3.213903624780306 32.02549017308944 0
277 1 5 3.642021939413525 32.203571458804454 0
278 1 9 10.614462459594646 32.28710844896965 0
279 1 8 17.66285374890459 32.18730109258266 0
280 1 8 24.29180324128543 32.3342683701708 0
281 1 9 31.36128090279 32.08856362515601 0
282 1 5 38.30607236629591 32.00485967225449 0
283 1 11 45.4117537310488 32.35495162257529 0
284 1 11 52.072847659035176 32.25205698504925 0
285 1 11 59.01246299921435 32.07797276657646 0
286 1 5 66.05633088407984 32.26777088113639 0
287 1 9 72.8108648224178 32.35050776021363 0
288 1 8 80.01094369857823 32.01373319910507 0
289 1 8 86.8556200797599 32.316943257328575 0
290 1 9 93.6901408004939 32.26304321993727 0
291 1 5 100.67506964410474 32.37238320823363 0
292 1 11 107.6548563434209 32.2737531393516 0
293 1 11 114.61068662962602 32.33009486905793 0
294 1 11 121.43354247807531 32.08046629730708 0
295 1 5 128.17622797117667 32.32536590828653 0
296 1 9 135.26648388278414 32.32681396150927 0
297 1 8 142.2473398181133 32.153951455353784 0
298 1 8 149.28969032519637 32.16289027361325 0
299 1 9 156.04904766921746 32.36829694144826 0
300 1 5 162.83769478961372 32.317966594154875 0
301 1 2 -3.235651012026045 36.34687275878341 0
302 1 5 3.5282453313916897 36.34783127386217 0
303 1 9 10.649335116949162 36.354880794243904 0
304 1 8 17.59442636212878 36.09755495904288 0
305 1 8 24.293028345071924 36.10317435141888 0
306 1 9 31.297590710629184 36.367561458887494 0
307 1 5 38.197058733175496 36.34192099173089 0
308 1 11 45.28719236060021 36.19486590272108 0
309 1 11 52.31208140785497 36.238726390237176 0
310 1 11 59.1477202239635 36.05625462157878 0
311 1 5 66.11911296296547 36.127709825299156 0
312 1 9 72.98639084193445 36.00383659381782 0
313 1 8 79.87282669295728 36.007357793173 0
314 1 8 86.72010105309614 36.298444170052214 0
315 1 9 93.77864475465381 36.173289944015934 0
316 1 5 100.59002506409757 36.10426118616852 0
317 1 11 107.51393788698479 36.0314113046238 0
318 1 11 114.53516487042127 36.16342659776637 0
319 1 11 121.4757165993312 36.3239705648793 0
320 1 5 128.5661274129954 36.27817286133085 0
321 1 9 135.23237811591684 36.08721986835353 0
322 1 8 142.26944182993537 36.11857760333438 0
323 1 8 149.0795535540318 36.16304322798649 0
324 1 9 156.17429609866497 36.33907268813237 0
325 1 5 162.93966177201895 36.169995186655385 0
326 1 5 0.09864995918702874 38.324944284382006 0
327 1 6 7.281823412990093 38.02576983516593 0
328 1 7 14.055262494908625 38.14838827345293 0
329 1 8 20.90570596542079 38.201895279134924 0
330 1 7 27.804530893505753 38.14953585397634 0
331 1 6 34.885368513799655 38.09317641737178 0
332 1 5 41.70302210841635 38.28208782603757 0
333 1 6 48.757249678614244 38.15834587555869 0
334 1 6 55.758362367048264 38.043301447940095 0
335 1 5 62.43966714431294 38.385395874967 0
336 1 6 69.36845285976725 38.02577636166916 0
337 1 7 76.2585859257734 38.044762139717 0
338 1 8 83.36957357615921 38.35150305398002 0
339 1 7 90.33413055611243 38.33441375600998 0
340 1 6 97.35437993044611 38.119777821204615 0
341 1 5 104.20058930453511 38.34392126024524 0
342 1 6 111.04268338289478 38.13718251883012 0
343 1 6 118.17878505081752 38.23737238289106 0
344 1 5 124.7477362731388 38.076805144594125 0
345 1 6 131.74661586314485 38.300346604301204 0
346 1 7 138.7026336974378 38.08235595929415 0
347 1 8 145.869945500962 38.02746986591401 0
348 1 7 152.77685227916834 38.055479196968186 0
349 1 6 159.40092186631423 38.32089566780101 0
350 1 5 166.37859786732332 38.345035115509745 0
351 1 6 0.2646588923314796 42.367281149356394 0
352 1 5 6.981864396862635 42.299091001498816 0
353 1 9 14.041693716224328 42.163313339904015 0
354 1 7 21.094329954286476 42.31460116227029 0
355 1 9 27.957882779556897 42.11765555456703 0
356 1 5 35.002566118832895 42.22878077157463 0
357 1 6 41.95657602549752 42.157598286144356 0
358 1 9 48.63117340497027 42.078493039495946 0
359 1 9 55.469178146376464 42.170501662768096 0
360 1 6 62.43640895058787 42.313630285858856 0
361 1 5 69.30923203736816 42.39481945191612 0
362 1 9 76.59245462608827 42.3251148236396 0
363 1 7 83.3152581430061 42.24805400600352 0
364 1 9 90.42238974967853 42.365374137105036 0
365 1 5 97.30054831209023 42.37857037323875 0
366 1 6 104.30950608970944 42.353387946389276 0
367 1 9 111.14746699543116 42.012494081921616 0
368 1 9 117.96115543622086 42.054637596617376 0
369 1 6 124.93671659892145 42.09906298473246 0
370 1 5 131.9141606079722 42.20527007148963 0
371 1 9 138.7378918820559 42.23657571436339 0
372 1 7 145.7599354865009 42.016877450917136 0
373 1 9 152.59032085791395 42.21125417688208 0
374 1 5 159.50190091312513 42.29460122755786 0
375 1 6 166.29198348085632 42.21923252173942 0
376 1 3 -3.2745737227017235 44.13547461603838 0
377 1 5 3.6202971869856486 44.28645531788398 0
378 1 6 10.502564352856906 44.22055865810854 0
379 1 9 17.52153295885546 44.19928425902384 0
380 1 9 24.409762426525376 44.23242992521114 0
381 1 6 31.442433176142785 44.16724990202399 0
382 1 5 38.141000174857695 44.39921284990967 0
383 1 9 45.421340280773215 44.27583289350208 0
384 1 7 51.97966510217851 44.21495953819947 0
385 1 9 59.174296209895964 44.337026130041764 0
386 1 5 66.04981170707674 44.15867615916646 0
387 1 6 73.08369448040463 44.10906911364581 0
388 1 9 79.91751147251725 44.35483374783671 0
389 1 9 86.91009388430024 44.398958631689105 0
390 1 6 93.56809518227327 44.21000990160854 0
391 1 5 100.73294037637929 44.358161221777664 0
392 1 9 107.62660303767984 44.38681832005306 0
393 1 7 114.34291213396867 44.39407090492206 0
394 1 9 121.46013122578633 44.02781031264804 0
395 1 5 128.5041339666205 44.35686449439454 0
396 1 6 135.38383592309364 44.180245758742466 0
397 1 9 142.10333279424432 44.050408879287076 0
398 1 9 149.03625011626616 44.32018216559938 0
399 1 6 155.9123597963772 44.049597037619485 0
400 1 5 162.89499433900681 44.3779862885357 0
401 1 10 -3.187563303888594 48.130192387800044 0
402 1 6 3.787431663892993 48.27969123061798 0
403 1 5 10.779828252797738 48.39033449098408 0
404 1 6 17.49502537256833 48.0834473571051 0
405 1 6 24.60570133230341 48.335141612080676 0
406 1 5 31.554229197749336 48.204958134050635 0
407 1 6 38.16689021693238 48.32166122908123 0
408 1 7 45.33629418870004 48.07824570499884 0
409 1 8 52.29739178355435 48.03304514053044 0
410 1 7 59.19054293649329 48.084027595283025 0
411 1 6 65.99077473454068 48.30739642067196 0
412 1 5 73.11216871862081 48.11770547356992 0
413 1 6 79.9991075035384 48.07457195020123 0
414 1 6 86.67867699517559 48.00581063750531 0
415 1 5 93.73639567250748 48.20515733109295 0
416 1 6 100.51500096575931 48.162275512379 0
417 1 7 107.48339279346862 48.22002874420608 0
418 1 8 114.53083308789954 48.37623667101529 0
419 1 7 121.2961674972526 48.03051199573433 0
420 1 6 128.46617473122103 48.11729139280643 0
421 1 5 135.19988772756696 48.236374897696734 0
422 1 6 142.22798329583773 48.17043737578465 0
423 1 6 148.97909986935522 48.37368667578045 0
424 1 5 156.1097558805292 48.08480686929219 0
425 1 6 162.99394529895767 48.0268615331001 0
426 1 9 0.26159156517103305 50.08141755131879 0
427 1 5 7.268048724035758 50.17866470407385 0
428 1 11 13.958780505755536 50.29845296758786 0
429 1 11 20.936929569942947 50.17772446329127 0
430 1 11 27.98230984278826 50.363198111471455 0
431 1 5 34.770167408423376 50.37775557227296 0
432 1 9 41.79541780048386 50.288271085855584 0
433 1 8 48.590445257819894 50.212199570123225 0
434 1 8 55.55000115131699 50.26252895156182 0
435 1 9 62.52177954359117 50.03729808667326 0
436 1 5 69.31786573129479 50.120082928736316 0
437 1 11 76.32030646231956 50.30627907000545 0
438 1 11 83.15995919613346 50.084234435407275 0
439 1 11 90.31355858999791 50.31445946316991 0
440 1 5 97.13830697287662 50.04864330711134 0
441 1 9 104.07564041902462 50.35840515998682 0
442 1 8 111.05641946298265 50.080501569805264 0
443 1 8 117.93210450601028 50.108218931882455 0
444 1 9 124.83160560208998 50.01882300308003 0
445 1 5 131.78714864579942 50.34469825937452 0
446 1 11 138.62578163199103 50.2305383329825 0
447 1 11 145.53432672580146 50.3972646782868 0
448 1 11 152.74106596610048 50.076612265999955 0
449 1 5 159.62149813347128 50.018591377827946 0
450 1 9 166.3920685940277 50.21612533263582 0
451 1 9 0.02887607343472558 54.24845676603222 0
452 1 5 6.9515456542143 54.12782350002341 0
453 1 11 13.956135379141886 54.37683511359318 0
454 1 11 21.1784008960829 54.09207295539422 0
455 1 11 27.863968745961813 54.01550948052616 0
456 1 5 35.03908509575087 54.12151897812311 0
457 1 9 41.67353318965425 54.042626873373955 0
458 1 8 48.612267576329636 54.092191313877855 0
459 1 8 55.502706143932194 54.097502215234975 0
460 1 9 62.410867651633794 54.29706259679878 0
461 1 5 69.61045152298196 54.34086301635781 0
462 1 11 76.2504790226674 54.14030985547335 0
463 1 11 83.26397171395996 54.12434676131215 0
464 1 11 90.14082098276549 54.286794546273036 0
465 1 5 97.39343969003508 54.31035964076266 0
466 1 9 104.09986512946722 54.20453290166237 0
467 1 8 110.91641392637561 54.035933523345925 0
468 1 8 117.78929800163499 54.170740189813394 0
469 1 9 124.89106805128408 54.10372181575119 0
470 1 5 131.86967404416706 54.3048519954962 0
471 1 11 138.63495363764352 54.07892224072773 0
472 1 11 145.77180717136713 54.327217751117786 0
473 1 11 152.42299048527565 54.112183236381775 0
474 1 5 159.59005978966042 54.260414760413944 0
475 1 9 166.56600562166324 54.06115389647684 0
476 1 10 -3.0668811667003957 56.086027975326786 0
477 1 6 3.5413017720096613 56.22888130420444 0
478 1 5 10.573758833230933 56.38565027445284 0
479 1 6 17.68610834154922 56.03957267556232 0
480 1 6 24.58364878004809 56.36684897888577 0
481 1 5 31.43798757911807 56.08705833768587 0
482 1 6 38.43129820928731 56.210725344592674 0
483 1 7 45.35023465947334 56.099869702069725 0
484 1 8 52.117425668205854 56.10606980516354 0
485 1 7 58.97334622115463 56.367841141577536 0
486 1 6 65.85138379734185 56.1859493763913 0
487 1 5 72.97565228280733 56.1009313794053 0
488 1 6 79.97612855560529 56.134723133862316 0
489 1 6 86.82458499841309 56.125648411711346 0
490 1 5 93.55104258953389 56.349960123333446 0
491 1 6 100.71957992267399 56.271155172561095 0
492 1 7 107.44439674463149 56.03566020034887 0
493 1 8 114.52796075179685 56.008487929598346 0
494 1 7 121.50453811300555 56.040723720520916 0
495 1 6 128.46957116971217 56.29788108671393 0
496 1 5 135.31810676323144 56.26125388706409 0
497 1 6 142.16678130019952 56.15560756376665 0
498 1 6 149.0637822115219 56.15445675852699 0
499 1 5 156.06488496975228 56.04556252612195 0
500 1 6 163.08416128209453 56.34482798331834 0
501 1 3 -3.4487270503650675 60.230680548000414 0
502 1 5 3.7740565272676676 60.20614873002092 0
503 1 6 10.710772956047213 60.23261360479035 0
504 1 9 17.454614503894497 60.3323913236058 0
505 1 9 24.377962733328886 60.225680072538665 0
506 1 6 31.24578429259373 60.27987327465559 0
507 1 5 38.47306437376396 60.302372016960994 0
508 1 9 45.186763659000434 60.34533904515711 0
509 1 7 51.976495524885166 60.23038826513441 0
510 1 9 58.959490064184365 60.31261772050215 0
511 1 5 66.08182303130341 60.04125488034209 0
512 1 6 72.82935964438896 60.25475529159417 0
513 1 9 79.84915775816334 60.225849996348394 0
514 1 9 86.86422938458891 60.184145542648274 0
515 1 6 93.5494408624577 60.334191487308225 0
516 1 5 100.72757591073237 60.37901364580589 0
517 1 9 107.65129046017715 60.20749063437109 0
518 1 7 114.57544217551911 60.17638411454102 0
519 1 9 121.5372982388051 60.31202547881297 0
520 1 5 128.4540412695656 60.11179460475733 0
521 1 6 135.27643846493868 60.268185975429134 0
522 1 9 142.03776674153093 60.04616575519694 0
523 1 9 149.1758191734236 60.27474692711854 0
524 1 6 156.17820603146066 60.05319848820496 0
525 1 5 162.88288807660638 60.361446923361044 0
526 1 6 0.38564771195537784 62.051368725540655 0
527 1 5 7.008504173544454 62.178909066826435 0
528 1 9 13.88640103459637 62.3970388904465 0
529 1 7 20.91991816687775 62.21279830909487 0
530 1 9 28.014345358775447 62.20651285791107 0
531 1 5 34.927313662828794 62.09353331787283 0
532 1 6 41.58690641178608 62.19984152368366 0
533 1 9 48.788132806264535 62.05238783490307 0
534 1 9 55.64565538127736 62.35339213387285 0
535 1 6 62.55283910299764 62.02674634352387 0
536 1 5 69.43391774005065 62.20205025276441 0
537 1 9 76.58469184850806 62.081673589305545 0
538 1 7 83.53331106464074 62.21258578340561 0
539 1 9 90.09014967809908 62.32708659116816 0
540 1 5 97.36487123539968 62.217831467329205 0
541 1 6 104.10263560365348 62.02937387700909 0
542 1 9 110.8849664448172 62.2700056022566 0
543 1 9 117.79425097276297 62.22239930648255 0
544 1 6 124.73627474537368 62.155244763695464 0
545 1 5 131.64362752074007 62.0829149942649 0
546 1 9 138.9423459201655 62.29709664357206 0
547 1 7 145.5068485976157 62.26414925160127 0
548 1 9 152.62697709649117 62.10067913975489 0
549 1 5 159.71341054127188 62.03943414703981 0
550 1 6 166.4953650076389 62.0085311064503 0
551 1 5 0.3596420999851804 66.22949820815381 0
552 1 6 7.202162345815773 66.25968273748343 0
553 1 7 13.8834926101706 66.0677376975163 0
554 1 8 21.075192888313026 66.3166513506666 0
555 1 7 27.995134438710757 66.04414673863441 0
556 1 6 34.91502108282928 66.38633115628325 0
557 1 5 41.57506139845617 66.06913137990173 0
558 1 6 48.57104854982272 66.02562807033937 0
559 1 6 55.551526601638194 66.28545342421299 0
560 1 5 62.54375416002272 66.31001573349342 0
561 1 6 69.61085348609753 66.26391696152784 0
562 1 7 76.26889780484426 66.24837968783002 0
563 1 8 83.47006959379935 66.09835537171543 0
564 1 7 90.38839317220142 66.21324801211115 0
565 1 6 97.08687925305287 66.31732264026229 0
566 1 5 104.29165518995809 66.0645255659557 0
567 1 6 111.0037000054948 66.03027735410863 0
568 1 6 117.86497593012369 66.10292946516735 0
569 1 5 124.75362028254918 66.1747967511639 0
570 1 6 131.92505097461924 66.26111958705118 0
571 1 7 138.58610421483814 66.3378787893418 0
572 1 8 145.861492275037 66.16394328416072 0
573 1 7 152.71534280920116 66.27916724760561 0
574 1 6 159.48569980812164 66.20178717339893 0
575 1 5 166.36820495678433 66.20101093034526 0
576 1 2 -3.0742852585027243 68.03473768218906 0
577 1 5 3.836676787841117 68.29865337377963 0
578 1 9 10.556514215104858 68.33336751109435 0
579 1 8 17.701566130146325 68.28223690144553 0
580 1 8 24.300531427778967 68.13147619904284 0
581 1 9 31.39443446738217 68.23967919821982 0
582 1 5 38.40108635199001 68.05889820826442 0
583 1 11 45.26497922227691 68.08407505073143 0