
14309 atoms
14896 bonds
16659 angles
7 atom types
2 bond types
4 angle types

-5.680607966083864 171.52447279080386 xlo xhi
-2.0 148.0 ylo yhi
-4 4 zlo zhi


Masses

1 0.00020140305334075034
2 0.0005466654304963223
3 0.0004028061066815007
4 0.0007480684838370727
5 0.000345262377155572
6 0.0004028061066815007
7 0.000690524754311144

Pair Coeffs

1 0.40509979849834776 0.44544935907016964 0.5
2 0.40509979849834776 0.44544935907016964 0.5
3 0.40509979849834776 0.44544935907016964 0.5
4 0.40509979849834776 0.44544935907016964 0.5
5 0.40509979849834776 0.44544935907016964 0.5
6 0.40509979849834776 0.44544935907016964 0.5
7 0.40509979849834776 0.44544935907016964 0.5

Bond Coeffs

1 80.56122133630014 0.5
2 138.1049508622288 0.5

Angle Coeffs

1 4.357093492314167 180
2 21.950605115798485 180
3 7.270939212669127 120
4 4.357093492314167 120

Atoms

1 1 1 -3.397457756637694 0.011359484436072221 0
2 1 2 3.564021952202436 0.061721506755042066 0
3 1 2 10.752143030487556 0.11031070012113804 0
4 1 3 17.51056175607044 0.10538891516353172 0
5 1 2 24.51924442916621 0.18643318681508042 0
6 1 2 31.48738530099401 0.36043542606956774 0
7 1 3 38.36221553492881 0.014189461896000434 0
8 1 2 45.42637608954632 0.0024289188344604365 0
9 1 2 52.24103992749151 0.20378149026172143 0
10 1 3 59.06714352154637 0.3919264714133095 0
11 1 2 65.88292433211832 0.0470870823131119 0
12 1 2 72.8433544533981 0.15015883209429048 0
13 1 3 80.05108803583943 0.10448361928196191 0
14 1 2 86.83036947313967 0.14059262379117615 0
15 1 2 93.84920422024817 0.0004815392406168684 0
16 1 3 100.79507833097017 0.05409188543832055 0
17 1 2 107.75231994300867 0.03982923980758968 0
18 1 2 114.61810524766553 0.2434587226265711 0
19 1 3 121.27272934183598 0.13156734063947084 0
20 1 2 128.29789460918224 0.2374142625143888 0
21 1 2 135.43337666270259 0.21701522854721067 0
22 1 3 142.1409549240789 0.09750191210848702 0
23 1 2 149.1265095335754 0.3471564373663584 0
24 1 2 156.2447606095765 0.28759075946637785 0
25 1 3 163.15406678328426 0.03807723315457961 0
26 1 4 0.3224407507385818 2.2869359886842804 0
27 1 4 7.247784909478346 2.232579772589063 0
28 1 4 13.867436712156868 2.259522217221902 0
29 1 4 21.083308277050236 2.0923170140343963 0
30 1 4 27.82660813780688 2.393362379417736 0
31 1 4 35.03071586802836 2.1674281604078085 0
32 1 4 41.627024758555685 2.0184718645811635 0
33 1 4 48.674474740251995 2.2779813480056 0
34 1 4 55.624528381653874 2.3893508662790732 0
35 1 4 62.45692379119854 2.29918413161503 0
36 1 4 69.32303401270197 2.279182154548062 0
37 1 4 76.3560264452226 2.059277798356344 0
38 1 4 83.40695852203586 2.030454040012111 0
39 1 4 90.19420657957878 2.009496223595253 0
40 1 4 97.25177286821864 2.2183000595977904 0
41 1 4 103.9788144256272 2.054923604960775 0
42 1 4 111.19309058055825 2.0819728099471835 0
43 1 4 118.09618440229384 2.3568580660569554 0
44 1 4 124.98961939433126 2.22299137855477 0
45 1 4 131.8872807129931 2.389319090848549 0
46 1 4 138.9595776466295 2.2273644164274584 0
47 1 4 145.86669001350162 2.019089547591432 0
48 1 4 152.81591657913924 2.1554574186281314 0
49 1 4 159.51782993748785 2.274254101621592 0
50 1 4 166.3548943725011 2.136885698844154 0
51 1 4 0.10386421824777936 6.018750875580117 0
52 1 4 6.994133430959188 6.17285289773946 0
53 1 4 14.135759126980576 6.338964697791827 0
54 1 4 20.937892536833953 6.072450367623617 0
55 1 4 27.89508648952312 6.2136685315440054 0
56 1 4 34.8177010968942 6.339163865463707 0
57 1 4 41.77621532892059 6.065282959111473 0
58 1 4 48.77397611159975 6.301708151204113 0
59 1 4 55.75827896482455 6.327241482128153 0
60 1 4 62.71511427836302 6.178488829267161 0
61 1 4 69.33568041522153 6.009052879537116 0
62 1 4 76.5609531367407 6.148606461051986 0
63 1 4 83.16428910927216 6.32634253997886 0
64 1 4 90.31920378202153 6.313534688025009 0
65 1 4 97.26485286237113 6.1083235827875075 0
66 1 4 103.9780348884232 6.032913917710565 0
67 1 4 111.03119840415705 6.202340086706737 0
68 1 4 117.93327090869688 6.117884480739401 0
69 1 4 124.98873890204038 6.020614004527833 0
70 1 4 131.6746243365154 6.025534622876599 0
71 1 4 138.81768134266144 6.269946329228826 0
72 1 4 145.73725906995023 6.374905592364151 0
73 1 4 152.56315796412355 6.119681193293878 0
74 1 4 159.72007406611468 6.392165094613065 0
75 1 4 166.63230068842782 6.1563592799392195 0
76 1 2 -3.138478156127184 8.355121765623627 0
77 1 4 3.786805452120399 8.02551091612501 0
78 1 4 10.744478592816595 8.39724033803656 0
79 1 4 17.71256394155934 8.373729459267173 0
80 1 4 24.274870612150167 8.386654703525181 0
81 1 4 31.479578668581198 8.02372696919438 0
82 1 4 38.43600563171247 8.099749585978232 0
83 1 4 45.072509541495364 8.3550321031482 0
84 1 4 52.35862730863203 8.06397730016436 0
85 1 4 59.101885726648554 8.026825442314975 0
86 1 4 66.07990696304613 8.21576222078353 0
87 1 4 73.10318778045979 8.240346210941262 0
88 1 4 79.91679008900464 8.122420540608312 0
89 1 4 86.88462025997033 8.19851659014487 0
90 1 4 93.66661350087236 8.072637786229704 0
91 1 4 100.55656225886874 8.244591424033397 0
92 1 4 107.47300667454668 8.122323627181874 0
93 1 4 114.62315543157955 8.072469450239641 0
94 1 4 121.45393865340918 8.233802249624294 0
95 1 4 128.41252030396979 8.038720269636844 0
96 1 4 135.14551893131738 8.145323487576034 0
97 1 4 142.26016275343807 8.138592121176952 0
98 1 4 149.2820173625885 8.259622018422725 0
99 1 4 156.14515644888215 8.232074846143082 0
100 1 4 163.09950292788022 8.194523144348757 0
101 1 2 -3.0958260681939227 12.070963008503943 0
102 1 4 3.527129794240083 12.168966352059336 0
103 1 4 10.492795180284517 12.295668794959216 0
104 1 4 17.637633127226575 12.1690686814518 0
105 1 4 24.588436858256546 12.326359300939888 0
106 1 4 31.249991649110196 12.210513694149448 0
107 1 4 38.31174162011075 12.369336827033681 0
108 1 4 45.378885243613084 12.360408433973078 0
109 1 4 52.09620613980142 12.192630716428754 0
110 1 4 59.0399902122458 12.098228716738028 0
111 1 4 66.16348385181794 12.031463558417828 0
112 1 4 72.98109567762022 12.029625720311472 0
113 1 4 79.83296914504409 12.228631596376415 0
114 1 4 86.63105008701858 12.123503258629183 0
115 1 4 93.56300668807593 12.112055286743443 0
116 1 4 100.57540390781773 12.208625928688187 0
117 1 4 107.45291171953832 12.175891800816235 0
118 1 4 114.3212561360082 12.121854842304677 0
119 1 4 121.31917169782305 12.387646355136054 0
120 1 4 128.50065070139513 12.197394587640105 0
121 1 4 135.490345493471 12.240594476220666 0
122 1 4 142.42069041565694 12.194421015980858 0
123 1 4 149.19475054964093 12.072477841820994 0
124 1 4 156.1268972430364 12.084013507684563 0
125 1 4 163.09830061191087 12.282037435069464 0
126 1 4 0.10683899047389991 14.231577071876933 0
127 1 4 6.961726194924147 14.225917945579342 0
128 1 4 13.971762697159166 14.082311582256864 0
129 1 4 20.870709859339602 14.061876041844222 0
130 1 4 27.726658097590025 14.029419252822178 0
131 1 4 34.86608815733911 14.20986764761904 0
132 1 4 41.6973845005534 14.062311872117371 0
133 1 4 48.702899268088096 14.187393295061858 0
134 1 4 55.70710668541632 14.302976507292684 0
135 1 4 62.622141307953314 14.178343026395082 0
136 1 4 69.54006969768213 14.313847508837256 0
137 1 4 76.58797732778723 14.134070126056525 0
138 1 4 83.45511476728265 14.075596587956232 0
139 1 4 90.17898865461946 14.342104741720469 0
140 1 4 97.19440580755342 14.2454237513603 0
141 1 4 104.10085852561981 14.192046968739342 0
142 1 4 110.98713818143624 14.370173184868499 0
143 1 4 118.15040833039255 14.071094033981387 0
144 1 4 124.99764037764858 14.018316625492815 0
145 1 4 131.8458769317501 14.259164314491505 0
146 1 4 138.92005350084247 14.23284534026588 0
147 1 4 145.72497376001144 14.193081183706548 0
148 1 4 152.80223705466582 14.102068225884556 0
149 1 4 159.38932838022689 14.248958397254171 0
150 1 4 166.317992771633 14.218071947961107 0
151 1 4 0.26048509279771725 18.166264946757927 0
152 1 4 6.985589943056779 18.29200159450065 0
153 1 4 13.993282085972055 18.23657749881988 0
154 1 4 20.902355472098485 18.06820515859633 0
155 1 4 27.969419739080283 18.082590802445825 0
156 1 4 34.79517291059405 18.057730556708936 0
157 1 4 41.96233426375267 18.35389359026673 0
158 1 4 48.6573988369088 18.02592250579488 0
159 1 4 55.71880890716156 18.009276894991913 0
160 1 4 62.56291267777077 18.038895788312846 0
161 1 4 69.62995864963904 18.064054884968204 0
162 1 4 76.35826605129112 18.30666328223947 0
163 1 4 83.51079818186457 18.39842511828215 0
164 1 4 90.36204473947429 18.037152809201768 0
165 1 4 97.30788654264427 18.31557231250589 0
166 1 4 104.0416868356385 18.306527640287346 0
167 1 4 111.05868899505143 18.122007482619424 0
168 1 4 117.84866449479811 18.386560405766375 0
169 1 4 124.92803448913128 18.119964404914462 0
170 1 4 131.86801515584872 18.071513884178884 0
171 1 4 138.85153548482978 18.04722134790225 0
172 1 4 145.69372926541175 18.01402119764157 0
173 1 4 152.44259996464243 18.21689629963973 0
174 1 4 159.37052103288863 18.207269289786208 0
175 1 4 166.48407250504192 18.338866731378275 0
176 1 2 -3.1138369299853426 20.29583379375456 0
177 1 4 3.4668160413643547 20.17259833278133 0
178 1 4 10.714145019249894 20.079570541963054 0
179 1 4 17.663107504046852 20.123424630017322 0
180 1 4 24.401453336990734 20.318632505250996 0
181 1 4 31.425051281722908 20.18653697551673 0
182 1 4 38.50306764379634 20.340822368331843 0
183 1 4 45.21687767754563 20.129332058859873 0
184 1 4 51.989830898857974 20.06751253798215 0
185 1 4 59.108292505610734 20.179770432093566 0
186 1 4 65.81913805255924 20.29327903849201 0
187 1 4 72.99638998806853 20.344392528586155 0
188 1 4 79.82904984949143 20.150330140195162 0
189 1 4 86.86148364844587 20.359592446338834 0
190 1 4 93.53239564547837 20.254005225058627 0
191 1 4 100.61491192146258 20.359641469916607 0
192 1 4 107.49570520042022 20.093661091101325 0
193 1 4 114.44197176788336 20.379614201414633 0
194 1 4 121.62780804711998 20.147392717811925 0
195 1 4 128.34237567508623 20.02372666656741 0
196 1 4 135.18234123565648 20.397384410611902 0
197 1 4 142.1414516209945 20.20597093376514 0
198 1 4 149.06813446359195 20.335699699999182 0
199 1 4 156.09622191375425 20.24033396857309 0
200 1 4 163.12126948214055 20.360597729225017 0
201 1 2 -3.317559624874817 24.300275078332056 0
202 1 4 3.806077848025044 24.10631304962621 0
203 1 4 10.62331064379243 24.174010155507386 0
204 1 4 17.367660079304958 24.258976969951128 0
205 1 4 24.604280134152788 24.18271290655048 0
206 1 4 31.184192953718437 24.243731216993673 0
207 1 4 38.325755948117596 24.249184202443168 0
208 1 4 45.136533365809385 24.345389342060308 0
209 1 4 51.97562031665833 24.12346022625541 0
210 1 4 58.95499256753307 24.125626563788963 0
211 1 4 66.19087652120706 24.332130259377248 0
212 1 4 72.9309019173042 24.177595459220797 0
213 1 4 79.68918119081827 24.25319451499839 0
214 1 4 86.70387380227531 24.068938171418075 0
215 1 4 93.89331929631062 24.087626528388274 0
216 1 4 100.741219638941 24.187497806975347 0
217 1 4 107.43955063589223 24.168442677433525 0
218 1 4 114.32005474301403 24.069957760780103 0
219 1 4 121.43346229586308 24.284142862096324 0
220 1 4 128.35529604203995 24.248580656914378 0
221 1 4 135.185819786463 24.282799111855912 0
222 1 4 142.09430897726966 24.031326224763824 0
223 1 4 149.19700222218626 24.265083293823583 0
224 1 4 155.92999137234136 24.26156595331241 0
225 1 4 163.17497548640966 24.169642706444673 0
226 1 4 0.320624221075082 26.389403307606347 0
227 1 4 7.131949955789165 26.186503299141272 0
228 1 4 14.192274086821893 26.338667076768964 0
229 1 4 20.93398221187792 26.075470965719962 0
230 1 4 27.865962716312257 26.292764651971606 0
231 1 4 34.79677044814026 26.15864915263334 0
232 1 4 41.86932299843658 26.1362247756394 0
233 1 4 48.55042552910522 26.13594678828682 0
234 1 4 55.499337780567956 26.172615471549484 0
235 1 4 62.56957962972746 26.232918442842553 0
236 1 4 69.36466424465175 26.225458175747384 0
237 1 4 76.4899654535034 26.037898821256878 0
238 1 4 83.5040079078038 26.17473716303827 0
239 1 4 90.1216574605545 26.096552954219156 0
240 1 4 97.021734372574 26.21334588430522 0
241 1 4 104.05284717058169 26.31756872759207 0
242 1 4 110.98909827871753 26.14653962656827 0
243 1 4 118.07220990924901 26.260126795434743 0
244 1 4 124.8832147860222 26.132963890805033 0
245 1 4 131.94251740824913 26.0843287932838 0
246 1 4 138.8628957350427 26.366481146901197 0
247 1 4 145.70075788044778 26.189553237663247 0
248 1 4 152.62063479564299 26.342219193758773 0
249 1 4 159.65782257726187 26.399942484470053 0
250 1 4 166.52091715778047 26.250025182585894 0
251 1 4 0.01853981919960015 30.327772877799738 0
252 1 4 7.057468962629747 30.07184145422758 0
253 1 4 13.93901247073751 30.002159673082083 0
254 1 4 20.86262188378025 30.09830586187851 0
255 1 4 27.867860116132476 30.235597839731426 0
256 1 4 35.02295605878305 30.223670451495693 0
257 1 4 41.887844245192525 30.18154345636544 0
258 1 4 48.71356944428785 30.365883208917747 0
259 1 4 55.75771158756127 30.074852477116487 0
260 1 4 62.722833789020704 30.290085371546965 0
261 1 4 69.37909510572608 30.213914869539295 0
262 1 4 76.25491404849916 30.014423244694182 0
263 1 4 83.47706686115953 30.361105409751527 0
264 1 4 90.27052990176553 30.382521625815126 0
265 1 4 97.08467280235843 30.012367852315197 0
266 1 4 104.0604803831394 30.1643893712688 0
267 1 4 111.15574431562874 30.346710223140843 0
268 1 4 118.10579831974837 30.03824299494111 0
269 1 4 124.95316079531521 30.021286288111597 0
270 1 4 131.73962682948218 30.134358385114 0
271 1 4 138.71292419878512 30.23276915157552 0
272 1 4 145.70513615687207 30.398459656183544 0
273 1 4 152.43848349317508 30.372582649819073 0
274 1 4 159.43440213966934 30.17071897573703 0
275 1 4 166.57148533154134 30.058922501203092 0
276 1 2 -3.2134821809073286 32.233164161716516 0
277 1 4 3.476029610241408 32.007648578674164 0
278 1 4 10.459424568049828 32.19146531008797 0
279 1 4 17.483045780382927 32.3769693760619 0
280 1 4 24.34939275677426 32.14137746269071 0
281 1 4 31.272936585173245 32.17761283366919 0
282 1 4 38.23544995470528 32.189567188179716 0
283 1 4 45.42885107783306 32.383329286661265 0
284 1 4 52.175711167807115 32.37937100463689 0
285 1 4 59.20833734137413 32.30341879112213 0
286 1 4 66.08260457756693 32.0979876099038 0
287 1 4 73.09248339611948 32.23266441588156 0
288 1 4 79.99909673776622 32.25794514478499 0
289 1 4 86.67432673710366 32.14861455308161 0
290 1 4 93.67747234659144 32.34431095590162 0
291 1 4 100.75604543146834 32.10898943040376 0
292 1 4 107.65318207663596 32.25688896079757 0
293 1 4 114.34253131276563 32.27551244345155 0
294 1 4 121.27557457738473 32.208318168822906 0
295 1 4 128.34048223388913 32.14397368805025 0
296 1 4 135.20811674538973 32.10602914148053 0
297 1 4 142.1981967110635 32.20665592344518 0
298 1 4 149.05263394759905 32.238908185246785 0
299 1 4 155.92305556844906 32.28276368316161 0
300 1 4 163.01472948501572 32.35404099521326 0
301 1 2 -3.166763259263343 36.19452421228881 0
302 1 4 3.5493961437036146 36.04376155306978 0
303 1 4 10.696104826950714 36.19400690464751 0
304 1 4 17.591688743651975 36.14486751441199 0
305 1 4 24.333778666084715 36.24065258205248 0
306 1 4 31.503559525970523 36.184470837621575 0
307 1 4 38.446844206255264 36.21215953514186 0
308 1 4 45.14255102601778 36.181629809573444 0
309 1 4 52.28228994132625 36.394502974739815 0
310 1 4 58.96254298361948 36.305257031045514 0
311 1 4 66.05938935319865 36.3399643715244 0
312 1 4 72.90990754192335 36.11055013860482 0
313 1 4 79.71761169439101 36.0364334356373 0
314 1 4 86.99388281397107 36.15180630415041 0
315 1 4 93.80494905477926 36.03595932387115 0
316 1 4 100.47624095859892 36.09745752123893 0
317 1 4 107.51052532063349 36.330458886178285 0
318 1 4 114.56068057981116 36.34283695279587 0
319 1 4 121.33512175163793 36.38959656082592 0
320 1 4 128.52194542409467 36.211511396029785 0
321 1 4 135.1404766182327 36.051720480070884 0
322 1 4 142.38378950197426 36.225597713738026 0
323 1 4 149.01786669017176 36.192935548617506 0
324 1 4 156.06329377962754 36.048109172348894 0
325 1 4 162.89701444997334 36.15538489404344 0
326 1 4 0.047830447631983075 38.23466065044122 0
327 1 4 7.144533011860942 38.161105028268324 0
328 1 4 13.959268991680789 38.19946345203732 0
329 1 4 21.026952538753875 38.39417906503566 0
330 1 4 28.055981664383978 38.293144246558604 0
331 1 4 34.82091301475878 38.38449125990813 0
332 1 4 41.90706561067709 38.065216294470375 0
333 1 4 48.75863741846955 38.28847842330128 0
334 1 4 55.50657427671389 38.08492006219697 0
335 1 4 62.450199425757994 38.1429502791465 0
336 1 4 69.62754261326992 38.1498693229125 0
337 1 4 76.30729417519177 38.23174685511337 0
338 1 4 83.3692997464878 38.14615919737719 0
339 1 4 90.39066128412176 38.27815133323705 0
340 1 4 97.01909300010483 38.07119566560248 0
341 1 4 104.1402942521201 38.30079663853827 0
342 1 4 111.16985854603767 38.17139314583235 0
343 1 4 118.05912030196475 38.08379741618264 0
344 1 4 125.07616761579217 38.12858110477082 0
345 1 4 131.63922544274826 38.04092217227513 0
346 1 4 138.57711563389742 38.23743395213291 0
347 1 4 145.50531310627824 38.055097009163084 0
348 1 4 152.44321248737634 38.37955954817602 0
349 1 4 159.41270722036438 38.01349257978683 0
350 1 4 166.29828587556509 38.265397578193316 0
351 1 4 0.3605927857797895 42.09216743330032 0
352 1 4 7.102451946781052 42.309065945981786 0
353 1 4 13.975351221225305 42.062568371730556 0
354 1 4 21.011063846209716 42.197116784316556 0
355 1 4 27.77518000862368 42.240027440311636 0
356 1 4 34.857478477560406 42.33943206917234 0
357 1 4 41.58610275328486 42.374377086701756 0
358 1 4 48.70899705596511 42.29029594996322 0
359 1 4 55.474249990162065 42.37541472357189 0
360 1 4 62.63028886767849 42.27702444122039 0
361 1 4 69.50344245489657 42.247971551088476 0
362 1 4 76.41982469330054 42.35927709352114 0
363 1 4 83.4109114736249 42.37503602483567 0
364 1 4 90.16880087112399 42.379060204373246 0
365 1 4 97.01125053336843 42.202728567503065 0
366 1 4 103.92918743347201 42.12218638525873 0
367 1 4 111.08374225461057 42.11379909997289 0
368 1 4 117.97231520296793 42.05716168069484 0
369 1 4 124.92388499259694 42.17890409054706 0
370 1 4 131.82924099147294 42.24383832807028 0
371 1 4 138.89034846953936 42.142716599492644 0
372 1 4 145.63783434726636 42.38162770568782 0
373 1 4 152.56605912362522 42.295917258620115 0
374 1 4 159.66408649322884 42.37647558590281 0
375 1 4 166.36203202219642 42.065294976212336 0
376 1 2 -3.2513429652607897 44.32712252621224 0
377 1 4 3.8584830903353717 44.23096449361382 0
378 1 4 10.489392741842465 44.39568414232991 0
379 1 4 17.499725750389477 44.35417190826117 0
380 1 4 24.41517804313756 44.28315028935636 0
381 1 4 31.21126904070098 44.294902654156914 0
382 1 4 38.19086202315513 44.114453872157405 0
383 1 4 45.180253309263904 44.390675902601835 0
384 1 4 52.01415774337954 44.37840337732317 0
385 1 4 59.14689059869372 44.055583390401225 0
386 1 4 65.94094702435775 44.16126226592435 0
387 1 4 73.01901136038873 44.21021591684382 0
388 1 4 80.01806516231103 44.19198696332145 0
389 1 4 86.72645946416633 44.3127763704506 0
390 1 4 93.79843321161499 44.30909612020516 0
391 1 4 100.81988523306862 44.27629466313449 0
392 1 4 107.64289794442534 44.12632126027979 0
393 1 4 114.31701093295756 44.134445024552505 0
394 1 4 121.54380839070454 44.14663320395477 0
395 1 4 128.2022829314747 44.17718004488755 0
396 1 4 135.1445458640826 44.15340520436791 0
397 1 4 142.1580243477877 44.01173664464648 0
398 1 4 149.15700735075217 44.18513210221956 0
399 1 4 156.2262302760659 44.39365548363663 0
400 1 4 163.08855100924777 44.283688971126345 0
401 1 2 -3.1684333216682288 48.261263531119205 0
402 1 4 3.567511872512115 48.396323620351296 0
403 1 4 10.553595012558167 48.32882338922023 0
404 1 4 17.375529879470566 48.210938894589674 0
405 1 4 24.622466032239853 48.038240980261406 0
406 1 4 31.258072939721703 48.10529413091361 0
407 1 4 38.29769088976038 48.38494418699003 0
408 1 4 45.31058604772212 48.05508076373503 0
409 1 4 52.01938884685834 48.04266652166126 0
410 1 4 58.928695252757834 48.383407007399 0
411 1 4 65.85307478534776 48.30249896229077 0
412 1 4 72.84205197129162 48.39168657037189 0
413 1 4 79.70734363900793 48.3067536246513 0
414 1 4 86.64701756417226 48.20146204938288 0
415 1 4 93.81480474434676 48.23805959750193 0
416 1 4 100.7889931347067 48.218010573720555 0
417 1 4 107.51141036957411 48.25744186754973 0
418 1 4 114.62066129073335 48.339536635957565 0
419 1 4 121.63707262642592 48.321388457049146 0
420 1 4 128.29585093444993 48.24794404219793 0
421 1 4 135.38519467449336 48.02299529005998 0
422 1 4 142.28668827320027 48.360603615612725 0
423 1 4 149.05463283181734 48.117371810342114 0
424 1 4 156.27239010510766 48.0162150591361 0
425 1 4 163.19111175217057 48.375195948570195 0
426 1 4 0.13935992729868768 50.093205232038535 0
427 1 4 7.158966012935709 50.16155917814738 0
428 1 4 13.94356407861508 50.388525337241916 0
429 1 4 21.07118717225894 50.19285325746266 0
430 1 4 27.721363549598074 50.29067510624487 0
431 1 4 34.94796121454736 50.099436253989516 0
432 1 4 41.82500371510645 50.23585572199239 0
433 1 4 48.6262101583962 50.37628763125194 0
434 1 4 55.627344135223105 50.19005651180804 0
435 1 4 62.3928235888311 50.10006799059798 0
436 1 4 69.43685001541378 50.22875345785267 0
437 1 4 76.6075151948224 50.301199558671485 0
438 1 4 83.47272985196464 50.23306834782421 0
439 1 4 90.29064211247406 50.33542883194733 0
440 1 4 97.0012751079227 50.28985704936522 0
441 1 4 104.00690210885122 50.25221195615713 0
442 1 4 110.96697804347853 50.059678674372186 0
443 1 4 118.11744071127674 50.21905594921505 0
444 1 4 124.73071252022339 50.39601942703961 0
445 1 4 131.80153976595557 50.34964869079201 0
446 1 4 138.60412704042054 50.277379896270276 0
447 1 4 145.60350791007662 50.17883891307553 0
448 1 4 152.52056462446038 50.30932712441788 0
449 1 4 159.6594573046324 50.197495190637525 0
450 1 4 166.42247856119602 50.11136699315169 0
451 1 4 0.3585512341707138 54.091532024284376 0
452 1 4 6.948664915134975 54.02537280640392 0
453 1 4 13.894731560505798 54.31022926904701 0
454 1 4 20.83657486034502 54.17709587190509 0
455 1 4 28.05415618213984 54.373226929022124 0
456 1 4 34.74871786193865 54.25992677491255 0
457 1 4 41.760270432915554 54.38467386416823 0
458 1 4 48.67441933338447 54.15061138433473 0
459 1 4 55.54534420869901 54.19807076674736 0
460 1 4 62.42536094147322 54.01296348372169 0
461 1 4 69.40768973163631 54.1540543409596 0
462 1 4 76.28816031378607 54.30421748919995 0
463 1 4 83.14128660547296 54.20333204912274 0
464 1 4 90.11789155276097 54.27365951018539 0
465 1 4 97.34697675456972 54.197459558226576 0
466 1 4 104.20213802001238 54.067304427320444 0
467 1 4 111.07528263100212 54.22806043284223 0
468 1 4 118.13049180566294 54.05978982176465 0
469 1 4 124.82487430447182 54.337728621293905 0
470 1 4 131.63715531986557 54.35024577164297 0
471 1 4 138.6099207119849 54.14528453987985 0
472 1 4 145.49286484456394 54.199335233795786 0
473 1 4 152.73760572026245 54.36664149960364 0
474 1 4 159.5052447507137 54.092820960371576 0
475 1 4 166.58145097693492 54.28740003298472 0
476 1 2 -3.204051873389907 56.13570318446294 0
477 1 4 3.5653822893167457 56.278747277004314 0
478 1 4 10.61682344274788 56.11793403765925 0
479 1 4 17.71053771401699 56.299501190440836 0
480 1 4 24.50626090489057 56.27842345898681 0
481 1 4 31.27071064552441 56.30028175908768 0
482 1 4 38.50488976475603 56.10972468150928 0
483 1 4 45.05846462127213 56.21646653920731 0
484 1 4 52.2993219482132 56.368829862504874 0
485 1 4 59.14589583985528 56.10502633497121 0
486 1 4 65.91883556556756 56.123116149408155 0
487 1 4 72.89259160271071 56.00176437123523 0
488 1 4 79.95627262362697 56.192130725220196 0
489 1 4 86.80180602093216 56.34537778610962 0
490 1 4 93.81687449355863 56.003426607622934 0
491 1 4 100.6692891556553 56.232192777565686 0
492 1 4 107.7186910183773 56.1295001299188 0
493 1 4 114.64035961924799 56.36549763596637 0
494 1 4 121.53294988208256 56.18441403244684 0
495 1 4 128.19557617598025 56.00845953637814 0
496 1 4 135.22691591935632 56.0791819844744 0
497 1 4 142.38446528098132 56.18212292619576 0
498 1 4 149.07661903659468 56.027679706201226 0
499 1 4 156.13343587760613 56.21530364335341 0
500 1 4 163.0663310299742 56.06906187754555 0
501 1 2 -3.1295124728375545 60.216388124173555 0
502 1 4 3.6993741994117744 60.22374293794404 0
503 1 4 10.789203473767556 60.03858440611573 0
504 1 4 17.620071776767556 60.00610235989836 0
505 1 4 24.619833048061388 60.24307579948431 0
506 1 4 31.552638728002492 60.167585220774875 0
507 1 4 38.27868325576999 60.14358049074452 0
508 1 4 45.14330288399927 60.33716055913408 0
509 1 4 52.04995742925123 60.05816823296929 0
510 1 4 58.95621371377318 60.23267803122283 0
511 1 4 65.9294268267817 60.0495597932255 0
512 1 4 72.76100362804003 60.080132888160705 0
513 1 4 79.81536518312521 60.26912847427599 0
514 1 4 86.8914448999185 60.38928435249857 0
515 1 4 93.74301794678175 60.00730186490245 0
516 1 4 100.62838791910907 60.055067981378215 0
517 1 4 107.39188016383487 60.36218753766225 0
518 1 4 114.60646562656257 60.27834511681536 0
519 1 4 121.51793873917856 60.31127852148652 0
520 1 4 128.19808940200815 60.27035168409029 0
521 1 4 135.13205685415429 60.27215076858579 0
522 1 4 142.38454192000907 60.008048076058856 0
523 1 4 149.25259791558244 60.14672081132414 0
524 1 4 156.0903290110743 60.18129757105348 0
525 1 4 163.05918818597283 60.16313050242491 0
526 1 4 0.16583502895803118 62.31678912854538 0
527 1 4 7.296784044205152 62.004207126145516 0
528 1 4 14.023834743515337 62.07622433827187 0
529 1 4 20.875788314029784 62.145332069631735 0
530 1 4 27.974289312029764 62.351089110109385 0
531 1 4 34.812147355195336 62.397626382523164 0
532 1 4 41.60253484464295 62.30771574752857 0
533 1 4 48.82842981295231 62.16466738668624 0
534 1 4 55.68776441505446 62.20418703139914 0
535 1 4 62.389037065607326 62.09339139175306 0
536 1 4 69.4041030404023 62.04093325137621 0
537 1 4 76.57223516966208 62.05805060636202 0
538 1 4 83.33219931330538 62.210828016920225 0
539 1 4 90.42666414559542 62.26249340277328 0
540 1 4 97.13122715968429 62.21872544271151 0
541 1 4 104.25733641211824 62.02992490406628 0
542 1 4 111.04151732395343 62.14331966772614 0
543 1 4 118.04450511435857 62.05314461623021 0
544 1 4 124.96927431525596 62.28853519627871 0
545 1 4 131.72286417893517 62.20682622562441 0
546 1 4 138.77832867228923 62.06750243543383 0
547 1 4 145.8503723554497 62.236490028492206 0
548 1 4 152.65948588898448 62.16158917016346 0
549 1 4 159.73336739891226 62.18636768169184 0
550 1 4 166.2774767261272 62.336523915313535 0
551 1 4 0.27962737760925876 66.00887128479343 0
552 1 4 6.953632338444294 66.17086527722041 0
553 1 4 13.958515568809425 66.36404605261666 0
554 1 4 21.1202935481618 66.14201105777056 0
555 1 4 27.71686867390232 66.38759500866179 0
556 1 4 34.97454797369308 66.3778406939598 0
557 1 4 41.77170326367525 66.25190015772641 0
558 1 4 48.57604341285953 66.22683689679768 0
559 1 4 55.526731239625946 66.33514170891736 0
560 1 4 62.39418413522305 66.17981069832379 0
561 1 4 69.42878539347046 66.31378408903923 0
562 1 4 76.28543696101924 66.18705079504664 0
563 1 4 83.51533492446727 66.39508572561503 0
564 1 4 90.41249285415961 66.09697032364521 0
565 1 4 97.33473852783158 66.340055472276 0
566 1 4 104.0256168353904 66.37227047541177 0
567 1 4 111.00736317100214 66.33054181683019 0
568 1 4 118.14591101222918 66.21504227723278 0
569 1 4 125.07891684581628 66.17795330769482 0
570 1 4 131.7097833922586 66.23336507601054 0
571 1 4 138.78049440646078 66.25409454169878 0
572 1 4 145.74721434051744 66.04407019341159 0
573 1 4 152.5528899139495 66.19302947388292 0
574 1 4 159.3826430930331 66.1590886584787 0
575 1 4 166.44949695222041 66.27002505908798 0
576 1 2 -3.3557693106148236 68.34827101705514 0
577 1 4 3.6603566827944607 68.09941518062013 0
578 1 4 10.463826355997192 68.23007641306802 0
579 1 4 17.628931265834677 68.35032518373683 0
580 1 4 24.508447183319188 68.2380336661089 0
581 1 4 31.243709268482846 68.2656036979661 0
582 1 4 38.498575886137 68.23222792932309 0
583 1 4 45.223863281950344 68.0098764072944 0
584 1 4 52.04910632286523 68.2969563206738 0
585 1 4 59.22472333799706 68.22052948365715 0
586 1 4 66.12746062468591 68.14923794098597 0
587 1 4 72.74650315224255 68.04626525002442 0
588 1 4 79.7387606828147 68.35646559092265 0
589 1 4 86.69787070281802 68.0517904278223 0
590 1 4 93.69990752839448 68.32597751333279 0
591 1 4 100.75608326089419 68.05862585585942 0
592 1 4 107.45038570411441 68.25284620107273 0
593 1 4 114.68974183157884 68.25215814271372 0
594 1 4 121.62701665010806 68.37199488777455 0
595 1 4 128.25952084737722 68.33639838837772 0
596 1 4 135.4658255596919 68.3586628285172 0
597 1 4 142.20167168001467 68.02622968528696 0
598 1 4 149.0707277163014 68.14272524561443 0
599 1 4 156.03962786605288 68.15011597962908 0
600 1 4 162.91117554808616 68.26155855914205 0
601 1 2 -3.3736271389111585 72.20722978132304 0
602 1 4 3.75573128226381 72.03142998228608 0
603 1 4 10.684264199540442 72.1706234917015 0
604 1 4 17.65274802919153 72.39639683757468 0
605 1 4 24.368907663862707 72.30704812889694 0
606 1 4 31.22724440171261 72.38028672270588 0
607 1 4 38.23023876953319 72.32732684840431 0
608 1 4 45.290958174017696 72.05687567483803 0
609 1 4 52.194542703811365 72.01327131458193 0
610 1 4 58.98038528553648 72.20717131269453 0