
14309 atoms
14896 bonds
16659 angles
17 atom types
4 bond types
11 angle types

-5.680607966083864 171.52447279080386 xlo xhi
-2.0 148.0 ylo yhi
-4 4 zlo zhi


Masses

1 0.0002401745255507201
2 0.0004907914217775585
3 0.0004803490511014402
4 0.0005430032751581498
5 0.0005221185338059132
6 0.0007309659473282786
7 0.000710081205976042
8 0.0007727354300327516
9 0.0008145049127372246
10 0.0007100812059760421
11 0.0005012337924536767
12 0.0004699066804253219
13 0.00025061689622683835
14 0.0004803490511014402
15 0.0005012337924536767
16 0.0004594643097492037
17 0.0005430032751581498

Pair Coeffs

1 0.40509979849834776 0.44544935907016964 0.5
2 0.40509979849834776 0.44544935907016964 0.5
3 0.40509979849834776 0.44544935907016964 0.5
4 0.40509979849834776 0.44544935907016964 0.5
5 0.40509979849834776 0.44544935907016964 0.5
6 0.40509979849834776 0.44544935907016964 0.5
7 0.40509979849834776 0.44544935907016964 0.5
8 0.40509979849834776 0.44544935907016964 0.5
9 0.40509979849834776 0.44544935907016964 0.5
10 0.40509979849834776 0.44544935907016964 0.5
11 0.40509979849834776 0.44544935907016964 0.5
12 0.40509979849834776 0.44544935907016964 0.5
13 0.40509979849834776 0.44544935907016964 0.5
14 0.40509979849834776 0.44544935907016964 0.5
15 0.40509979849834776 0.44544935907016964 0.5
16 0.40509979849834776 0.44544935907016964 0.5
17 0.40509979849834776 0.44544935907016964 0.5

Bond Coeffs

1 96.06981022028805 0.5
2 100.24675849073535 0.5
3 91.89286194984074 0.5
4 108.60065503162994 0.5

Angle Coeffs

1 7.388895973909968 180
2 8.395175305607907 180
3 6.466422645696831 180
4 10.673726936585977 180
5 7.859959058391859 120
6 7.305641276079846 120
7 10.673726936585977 120
8 9.398318545946786 120
9 7.388895973909968 120
10 6.896950631618965 120
11 8.395175305607907 120

Atoms

1 1 1 -3.151280094635861 0.39901935969072255 0
2 1 2 3.4801730105620727 0.26021735971824467 0
3 1 3 10.532783566157226 0.30057481760761656 0
4 1 4 17.64415744743868 0.3643806995034569 0
5 1 5 24.32519081516076 0.07294468427500363 0
6 1 5 31.282128766597005 0.02327725398935683 0
7 1 4 38.229072394838646 0.3898919759746049 0
8 1 3 45.23950856015069 0.050654846097202416 0
9 1 2 52.029072345956955 0.206925531394031 0
10 1 3 58.97773051011605 0.3477417737570429 0
11 1 3 65.96589692152403 0.01238011757773072 0
12 1 3 73.05579884267203 0.3229651457903918 0
13 1 3 79.92112050854769 0.09025538310789144 0
14 1 2 86.7818593963752 0.03223406203452788 0
15 1 3 93.56922171341455 0.13700221454570669 0
16 1 4 100.65171154662366 0.20649047227311718 0
17 1 5 107.40111539346681 0.3732178105054949 0
18 1 5 114.40120680440245 0.2672117107662379 0
19 1 4 121.44100809903986 0.1480121573190536 0
20 1 3 128.24555979026925 0.32788199228281684 0
21 1 2 135.23299378964452 0.17161234768554556 0
22 1 3 142.15484199267263 0.12754236491021895 0
23 1 3 148.99418090051628 0.02511274811261375 0
24 1 3 156.02840278624925 0.3829117498976858 0
25 1 3 163.00580074971424 0.17935754525077058 0
26 1 6 0.10891839912517308 2.36657647062534 0
27 1 7 7.163541212534628 2.3221129898175277 0
28 1 8 14.165821370350068 2.3008515727450685 0
29 1 9 20.842502310327635 2.364460524043394 0
30 1 8 27.804919153793385 2.3604608760822394 0
31 1 9 34.72966465253825 2.071145791957575 0
32 1 8 41.9609016806165 2.081592424837125 0
33 1 7 48.74520086043217 2.3296471839444606 0
34 1 6 55.706428914474714 2.011023307319351 0
35 1 10 62.748202547439234 2.2818211061500104 0
36 1 10 69.59907272626666 2.0108813155735525 0
37 1 10 76.5565024946475 2.3406351887706824 0
38 1 6 83.51057519894904 2.2786547425767836 0
39 1 7 90.34276865363522 2.0793339237600397 0
40 1 8 97.00367906072464 2.341870928601786 0
41 1 9 104.17802292857584 2.2896458257672205 0
42 1 8 111.16792309289323 2.210322595768878 0
43 1 9 117.84631317051723 2.0189274783226305 0
44 1 8 125.01869575168809 2.208699430124622 0
45 1 7 131.67868079809372 2.3196076368931227 0
46 1 6 138.6310694714617 2.0133532879880085 0
47 1 10 145.87306349922193 2.053108370854912 0
48 1 10 152.73235139231596 2.3239970967741415 0
49 1 10 159.54357964080856 2.024408361242978 0
50 1 6 166.64863720066887 2.3850063521603886 0
51 1 7 0.008065929862227117 6.290510088964305 0
52 1 6 7.075770662705375 6.2433537245359405 0
53 1 6 14.025053264204956 6.346638518992989 0
54 1 9 21.021785971613895 6.110646635561804 0
55 1 9 27.9653457713813 6.154623834620891 0
56 1 9 34.72282500912723 6.356326336592977 0
57 1 6 41.87446381145189 6.304111772316391 0
58 1 6 48.79458192241736 6.36861571962746 0
59 1 7 55.44539336718498 6.072520506752874 0
60 1 6 62.44419247689543 6.223334965800227 0
61 1 6 69.66835184551637 6.179319109164067 0
62 1 6 76.4686298871928 6.379574614531039 0
63 1 7 83.21512443436316 6.221268494926563 0
64 1 6 90.10854327988643 6.3742650544190775 0
65 1 6 97.37523687811424 6.084504329139675 0
66 1 9 103.9704259265981 6.334256592144602 0
67 1 9 111.20891880723264 6.17054930582476 0
68 1 9 118.13012153061847 6.15506339775093 0
69 1 6 124.99938809569706 6.008563409974924 0
70 1 6 131.90229145682449 6.360331222761754 0
71 1 7 138.61304668762804 6.188502715139153 0
72 1 6 145.84765955347623 6.348151009147015 0
73 1 6 152.6212426389512 6.0351444070952915 0
74 1 6 159.3723567212707 6.2064550620378975 0
75 1 7 166.41723722681223 6.316140649180124 0
76 1 3 -3.331305268112482 8.188446950056717 0
77 1 6 3.595639964028093 8.244852163516097 0
78 1 7 10.719576638345739 8.269693636580143 0
79 1 8 17.37710149290789 8.186052230238785 0
80 1 9 24.572823979137425 8.00406771333275 0
81 1 9 31.245303354739566 8.2332560615483 0
82 1 8 38.290866236599534 8.310872659228774 0
83 1 7 45.05400051711596 8.37500394821617 0
84 1 6 52.320068698227665 8.186635662086651 0
85 1 6 58.921539294854306 8.271225438648681 0
86 1 8 66.1800250544041 8.245918392661988 0
87 1 8 73.10109146787723 8.186752399806492 0
88 1 6 79.988297213682 8.210742456970593 0
89 1 6 86.64700262575094 8.056394215824232 0
90 1 7 93.69227273363354 8.078573496473243 0
91 1 8 100.54375140465521 8.308143923801232 0
92 1 9 107.60968688414833 8.097778437320983 0
93 1 9 114.32186290404265 8.350962883134633 0
94 1 8 121.46458375721909 8.230663951312323 0
95 1 7 128.36757951208415 8.337670205084754 0
96 1 6 135.3663583845764 8.116348819578748 0
97 1 6 142.35948344272822 8.305919422642479 0
98 1 8 149.3313291073017 8.223500319888357 0
99 1 8 156.03193637458466 8.037432323691137 0
100 1 6 162.81520288283002 8.203605697242622 0
101 1 11 -3.066769217088625 12.24594669069165 0
102 1 7 3.829841751819756 12.183830921184242 0
103 1 6 10.412196905253076 12.217300658223701 0
104 1 6 17.35868502854291 12.153051413314186 0
105 1 8 24.363130239357623 12.273061541960574 0
106 1 8 31.24806243722289 12.368292248661225 0
107 1 6 38.392445576095994 12.107084661475964 0
108 1 6 45.42290465054226 12.08195065826856 0
109 1 7 52.23544059923931 12.132491300321359 0
110 1 8 59.213253481811364 12.298459406746924 0
111 1 9 66.17290265643531 12.073576581241287 0
112 1 9 73.0510984565747 12.142205491040057 0
113 1 8 80.00686702446161 12.172185832752584 0
114 1 7 86.68785273851508 12.209730686453973 0
115 1 6 93.91160303263243 12.01685012008047 0
116 1 6 100.5495634016792 12.013309307199487 0
117 1 8 107.59336723695408 12.313281161597384 0
118 1 8 114.37793148682047 12.363624127155385 0
119 1 6 121.53914078178998 12.177122816365227 0
120 1 6 128.3222035636266 12.164412053502764 0
121 1 7 135.4547389626798 12.393349128922273 0
122 1 8 142.36698218982232 12.396219845933825 0
123 1 9 149.31667272487346 12.399896021504972 0
124 1 9 155.93870042059712 12.127667259093252 0
125 1 8 163.1610179024225 12.141950973253444 0
126 1 6 0.30016090350861147 14.01457728821309 0
127 1 6 7.112985247129977 14.337238121439661 0
128 1 7 13.911758058319581 14.042375365441407 0
129 1 6 21.038444887219324 14.164192321476637 0
130 1 6 28.07578966989562 14.376024292905129 0
131 1 6 34.69680049989176 14.09600689763684 0
132 1 7 41.89568705969782 14.297234919247932 0
133 1 6 48.68215321886852 14.349320135233011 0
134 1 6 55.700444860192974 14.109858891272768 0
135 1 9 62.50530414525178 14.370380849889907 0
136 1 9 69.40843257934385 14.016147742820682 0
137 1 9 76.52963278543157 14.289919896489167 0
138 1 6 83.49409066967638 14.179229746573402 0
139 1 6 90.11517069168923 14.12876562304308 0
140 1 7 97.2475537191449 14.119280813356717 0
141 1 6 104.30734094020978 14.102352232302687 0
142 1 6 110.9652028721285 14.282267908471276 0
143 1 6 118.11071966260579 14.213889016492672 0
144 1 7 124.97251004366872 14.078935076469952 0
145 1 6 131.9316182376922 14.12539038868693 0
146 1 6 138.62002821933996 14.063435421823547 0
147 1 9 145.69889450182677 14.348707778987052 0
148 1 9 152.76138211372447 14.3439844008144 0
149 1 9 159.66498384744986 14.389533953281218 0
150 1 6 166.343439222057 14.381025898019544 0
151 1 8 0.21522502074953445 18.252536121942363 0
152 1 7 7.2278080895815044 18.059938712899136 0
153 1 6 14.085841558572291 18.136122655738784 0
154 1 10 21.028951348888505 18.049828479213115 0
155 1 10 28.085048953006638 18.00972044129304 0
156 1 10 34.96140917599726 18.36621115191951 0
157 1 6 41.96032588785364 18.33226602484872 0
158 1 7 48.77833967819705 18.306639248427103 0
159 1 8 55.78912695428907 18.321155502951317 0
160 1 9 62.521211790839864 18.21688932550319 0
161 1 8 69.33567506140298 18.226502264901175 0
162 1 9 76.30834323934992 18.219466391416958 0
163 1 8 83.50397702347672 18.274799625507555 0
164 1 7 90.1400499213643 18.08004090556482 0
165 1 6 97.24240038870512 18.115169471121515 0
166 1 10 104.21117686371903 18.20190244100438 0
167 1 10 111.00648362331472 18.13636016036623 0
168 1 10 117.85279753895749 18.20637211688242 0
169 1 6 124.79465660423611 18.13423690828723 0
170 1 7 131.7511612112319 18.304843718851238 0
171 1 8 138.8216166056426 18.129878551048915 0
172 1 9 145.59546120528287 18.032308241770316 0
173 1 8 152.7124013528302 18.367713024535792 0
174 1 9 159.52344659631714 18.073542439154156 0
175 1 8 166.58319738178403 18.327155656988477 0
176 1 4 -3.092997789413587 20.001639645820013 0
177 1 6 3.6997459886869555 20.211731295611017 0
178 1 6 10.67677877882967 20.133867458587854 0
179 1 6 17.505264588015862 20.299436316573637 0
180 1 6 24.499228821268122 20.124727113673483 0
181 1 6 31.56147021912066 20.2064009502355 0
182 1 6 38.21613237961356 20.277794261995712 0
183 1 6 45.05833105235309 20.164227337552415 0
184 1 6 52.243556190508315 20.22875567675017 0
185 1 9 59.28215558206145 20.254388971574784 0
186 1 8 65.85283358772 20.02547159823483 0
187 1 8 72.84983308997144 20.34439107915291 0
188 1 9 79.71398805443341 20.058808841329608 0
189 1 6 86.69875080643791 20.333242954631306 0
190 1 6 93.53659463164716 20.203520448857915 0
191 1 6 100.5638203206101 20.171416219572837 0
192 1 6 107.72467828329981 20.068762873004168 0
193 1 6 114.37923276881828 20.26955886840362 0
194 1 6 121.49273115398603 20.218667617272267 0
195 1 6 128.45393693204883 20.355033985683214 0
196 1 6 135.45037002639518 20.16774399432966 0
197 1 9 142.0993882738598 20.06772477209638 0
198 1 8 148.9917088290345 20.346568641287064 0
199 1 8 156.08020862362568 20.00795326608017 0
200 1 9 162.87015891146675 20.06311502065759 0
201 1 4 -3.223077068756391 24.27550261170241 0
202 1 6 3.466805842691615 24.09919536745576 0
203 1 6 10.695254687327965 24.332478170006144 0
204 1 6 17.678767444167775 24.177902455471266 0
205 1 6 24.5139210218066 24.296375895733114 0
206 1 6 31.499839239788383 24.161319340705557 0
207 1 6 38.33547083799518 24.399317638253645 0
208 1 6 45.239684355509674 24.06357237470911 0
209 1 6 52.230158454616365 24.17152229442294 0
210 1 9 59.26921535128359 24.320094092717998 0
211 1 8 66.16742872505972 24.25298673107692 0
212 1 8 72.96519293707507 24.367267115539615 0
213 1 9 80.04048056145145 24.05474462653066 0
214 1 6 86.73616809965999 24.390545230474977 0
215 1 6 93.77330178063353 24.086327982803006 0
216 1 6 100.52392474725032 24.30752609964519 0
217 1 6 107.61170281512163 24.022662043959944 0
218 1 6 114.44350380093674 24.361029092361516 0
219 1 6 121.54348538202879 24.37276680806928 0
220 1 6 128.2268341059918 24.073674214631023 0
221 1 6 135.17573475528272 24.31633930322956 0
222 1 9 142.08006764136422 24.200666337380994 0
223 1 8 149.20236002545133 24.20186230890044 0
224 1 8 155.94151625811858 24.266655586655645 0
225 1 9 163.02464618652866 24.19786336365431 0
226 1 8 0.1865095187339109 26.221900464313986 0
227 1 7 7.165225348846823 26.328560666655406 0
228 1 6 14.206177298968232 26.34336743104897 0
229 1 10 21.06896687639436 26.06155825545156 0
230 1 10 27.887141449317156 26.008972916137484 0
231 1 10 34.979352526981444 26.05263780041246 0
232 1 6 41.61081557967649 26.35090049689496 0
233 1 7 48.58586612043015 26.00262566698433 0
234 1 8 55.604503372759346 26.373382036328433 0
235 1 9 62.6926797220046 26.149103692820677 0
236 1 8 69.42371304057932 26.049863117580184 0
237 1 9 76.24869633581173 26.030944888340084 0
238 1 8 83.19067315177544 26.249518898764737 0
239 1 7 90.08071700758227 26.017810171759834 0
240 1 6 97.20599791938233 26.343400689668073 0
241 1 10 104.30449767585426 26.124684469937613 0
242 1 10 110.94354300760439 26.39817419891467 0
243 1 10 117.92540220242259 26.345590541153687 0
244 1 6 125.0032115397429 26.399724251203338 0
245 1 7 131.67439428148947 26.304153925032608 0
246 1 8 138.64018684615624 26.144539948323892 0
247 1 9 145.60976775707147 26.216458454213303 0
248 1 8 152.6746370505351 26.2471738441611 0
249 1 9 159.5645881841295 26.064631810726073 0
250 1 8 166.57497453921988 26.05089260855277 0
251 1 6 0.22530366999210108 30.13928802984088 0
252 1 6 7.033102554110264 30.069125660583467 0
253 1 7 13.962819178453467 30.20274450674078 0
254 1 6 20.82811953358937 30.395678262469588 0
255 1 6 27.785640989248527 30.13780545653973 0
256 1 6 34.69760429689375 30.3395723582247 0
257 1 7 41.79021298328817 30.116241498406243 0
258 1 6 48.76167625727132 30.25525647330879 0
259 1 6 55.701169563599755 30.372406706811528 0
260 1 9 62.490065394867344 30.10667887918702 0
261 1 9 69.67826264561556 30.22668024736031 0
262 1 9 76.45980381087159 30.383943973161777 0
263 1 6 83.52606807422869 30.027322373385065 0
264 1 6 90.43779191060358 30.222202565563205 0
265 1 7 97.2140602565249 30.002845623104456 0
266 1 6 104.07977285265869 30.118900201438777 0
267 1 6 110.93447107672255 30.222175535393433 0
268 1 6 117.81695915346353 30.386860648322347 0
269 1 7 124.71268931498992 30.24804118813276 0
270 1 6 131.84933326349048 30.16610471026271 0
271 1 6 138.79049611140897 30.110895835421527 0
272 1 9 145.72342202995813 30.399397032474827 0
273 1 9 152.4928583961771 30.09580226157701 0
274 1 9 159.64974476481908 30.344934877050363 0
275 1 6 166.49639592476038 30.34528093485137 0
276 1 11 -3.1001800419744305 32.34046852846169 0
277 1 7 3.654832405029964 32.1439337312884 0
278 1 6 10.530093672291525 32.13375061316875 0
279 1 6 17.436882215800274 32.10886679215316 0
280 1 8 24.296612607389456 32.004314172614905 0
281 1 8 31.427352312136197 32.02992546958283 0
282 1 6 38.15789971791959 32.149035478399625 0
283 1 6 45.086436354316604 32.07517649619264 0
284 1 7 51.98232273943189 32.11500918415376 0
285 1 8 59.158846393559124 32.285930208950646 0
286 1 9 65.98892067533056 32.36005976252387 0
287 1 9 73.0330591706314 32.302387269241216 0
288 1 8 79.95011350479139 32.32288385353271 0
289 1 7 86.84883221446803 32.305901478648515 0
290 1 6 93.79327018298837 32.1743983630602 0
291 1 6 100.49373777905433 32.34709503727971 0
292 1 8 107.53498584997978 32.02671568641671 0
293 1 8 114.47420171443852 32.07370191226671 0
294 1 6 121.47565303244143 32.22125089670121 0
295 1 6 128.56666676397109 32.272965631055584 0
296 1 7 135.26649904640846 32.14204272941884 0
297 1 8 142.211763441692 32.31595197334583 0
298 1 9 149.19100633306925 32.37779301486715 0
299 1 9 156.13354505077763 32.3932089306227 0
300 1 8 162.94658140497478 32.24800114572558 0
301 1 3 -3.2587410675342743 36.25045891531546 0
302 1 6 3.624297664616803 36.30551174385415 0
303 1 7 10.458041044048457 36.286044614622874 0
304 1 8 17.672131339971497 36.31401126042408 0
305 1 9 24.588229154792185 36.38327906088939 0
306 1 9 31.417765263808594 36.3535299934427 0
307 1 8 38.33654241673918 36.0489838051916 0
308 1 7 45.136223821293164 36.22425037951174 0
309 1 6 52.16225839117093 36.38398692816041 0
310 1 6 58.93558355399255 36.1944929327019 0
311 1 8 66.03269767591043 36.107878923952654 0
312 1 8 73.05634370141188 36.36273533476562 0
313 1 6 79.78006856459943 36.38026300261732 0
314 1 6 86.85060748458824 36.222714804900356 0
315 1 7 93.77952300755179 36.14673007310527 0
316 1 8 100.7521915168727 36.1623641753441 0
317 1 9 107.43732430460678 36.17921132108774 0
318 1 9 114.48334638156186 36.23367896067611 0
319 1 8 121.60525542066274 36.02622892171253 0
320 1 7 128.3646180074344 36.23253985436029 0
321 1 6 135.44200610211297 36.31103054457902 0
322 1 6 142.2832727704384 36.30543271019898 0
323 1 8 149.05864887468198 36.23235009130526 0
324 1 8 156.11505493169145 36.32034705516365 0
325 1 6 163.167739431921 36.193957544945775 0
326 1 7 0.1665777071000954 38.14054136790842 0
327 1 6 7.188742287567903 38.30630581272714 0
328 1 6 13.999577935000564 38.18697327399963 0
329 1 9 20.828029717469942 38.28136609441621 0
330 1 9 28.070031518291408 38.03463798211339 0
331 1 9 34.95379084437918 38.23298204875163 0
332 1 6 41.657549996316355 38.05695768122874 0
333 1 6 48.65564222014683 38.1034443909761 0
334 1 7 55.61213159835612 38.15960192710783 0
335 1 6 62.493271440301605 38.157480349655515 0
336 1 6 69.66431310495615 38.3155824995981 0
337 1 6 76.36350712506683 38.12375325454679 0
338 1 7 83.15416617217903 38.055578154353974 0
339 1 6 90.22591387151616 38.061672319939625 0
340 1 6 97.37388787401119 38.21561169659893 0
341 1 9 104.28260654374607 38.113014868450094 0
342 1 9 111.24780330860425 38.35506148412487 0
343 1 9 118.0360939425451 38.203650407720865 0
344 1 6 124.73489570941707 38.015655297157316 0
345 1 6 131.6938457225896 38.271937242996934 0
346 1 7 138.87706445464136 38.07613817220766 0
347 1 6 145.66947309231418 38.321553394022715 0
348 1 6 152.61857970049235 38.16029311422108 0
349 1 6 159.599870013101 38.16035177442768 0
350 1 7 166.55060923115934 38.085140315757485 0
351 1 6 0.33372106684740227 42.05642980899335 0
352 1 7 7.065236320580412 42.09848935442602 0
353 1 8 14.229237426942726 42.23017381646881 0
354 1 9 20.834355532294108 42.17878312861175 0
355 1 8 28.00837747514237 42.095459221996386 0
356 1 9 34.94004290155299 42.092064600190945 0
357 1 8 41.65293030538862 42.04573416518511 0
358 1 7 48.5136862021121 42.04649183947396 0
359 1 6 55.71431171029296 42.365609681086724 0
360 1 10 62.58334532308956 42.327428725778724 0
361 1 10 69.405936090587 42.145813948832 0
362 1 10 76.41651744935795 42.26454476777242 0
363 1 6 83.27907659208729 42.21317864525281 0
364 1 7 90.38431033455205 42.27939594012291 0
365 1 8 97.09123030205828 42.07097140925558 0
366 1 9 104.00632228245402 42.23935323234113 0
367 1 8 111.12991579118024 42.19329031647076 0
368 1 9 118.14570394797286 42.14003539860234 0
369 1 8 124.88939930131417 42.16932215682329 0
370 1 7 131.92939991506051 42.37781415164252 0
371 1 6 138.80301162575998 42.1691643456319 0
372 1 10 145.6178822038228 42.269213522541634 0
373 1 10 152.44762277549898 42.31408001701529 0
374 1 10 159.48444206165448 42.39733397862692 0
375 1 6 166.62762404047126 42.23717973034601 0
376 1 2 -3.4133499452994682 44.3634835306099 0
377 1 6 3.7188188686545165 44.31840987224541 0
378 1 6 10.440690818121292 44.148586327122 0
379 1 9 17.600224474411142 44.232739553009274 0
380 1 8 24.35788133826826 44.264124102695106 0
381 1 8 31.248136284596836 44.12916938526592 0
382 1 9 38.398429101887515 44.277946734731124 0
383 1 6 45.40254641639166 44.03316775788121 0
384 1 6 52.33539275878332 44.32059333539745 0
385 1 6 58.96382141367559 44.359244064594726 0
386 1 6 66.03020600941177 44.02731159041931 0
387 1 6 73.06933883055389 44.13639712097638 0
388 1 6 79.74680679653214 44.0704230365952 0
389 1 6 86.97348654933343 44.14368436966901 0
390 1 6 93.7979298653393 44.258685973219585 0
391 1 9 100.6964357948406 44.07617193174981 0
392 1 8 107.61379593466279 44.295906964323834 0
393 1 8 114.62718469018667 44.112840441591906 0
394 1 9 121.51866403301439 44.38260142180782 0
395 1 6 128.4526260329396 44.18877777094833 0
396 1 6 135.1273038989404 44.307781635135605 0
397 1 6 142.18342557875346 44.279641786138086 0
398 1 6 149.08782258812974 44.04723981656203 0
399 1 6 156.24275507238494 44.124092436830445 0
400 1 6 162.88762054238964 44.35082192983116 0
401 1 2 -3.40720444514822 48.15376260993455 0
402 1 6 3.510035605253485 48.34168414672376 0
403 1 6 10.652260978032414 48.02281757653418 0
404 1 9 17.45581928566329 48.360009962355186 0
405 1 8 24.60017078792816 48.39856528422251 0
406 1 8 31.246570126579147 48.010922144419375 0
407 1 9 38.32504880356946 48.306787869830984 0
408 1 6 45.183012953472115 48.396854404664204 0
409 1 6 52.22648944248503 48.2324753284028 0
410 1 6 59.21232191692444 48.24505988692602 0
411 1 6 65.924737022282 48.05950632343312 0
412 1 6 72.78642320754217 48.24668229607025 0
413 1 6 80.07409774564329 48.39850728416844 0
414 1 6 86.84752284034198 48.30187715487142 0
415 1 6 93.5956800268422 48.370845553701606 0
416 1 9 100.82061979709422 48.31887774373172 0
417 1 8 107.43038709595338 48.296878019241404 0
418 1 8 114.37169531055973 48.38887733921865 0
419 1 9 121.44322479658221 48.231474449704955 0
420 1 6 128.32773059410607 48.118848910204704 0
421 1 6 135.4058592082102 48.30620934491588 0
422 1 6 142.40651944005867 48.255874857121775 0
423 1 6 148.97584123524217 48.014890196024126 0
424 1 6 156.21063326943235 48.33704399796784 0
425 1 6 162.92008203682167 48.047044997633755 0
426 1 6 0.3602288226683798 50.15307247734826 0
427 1 7 7.23986823869452 50.29860169519041 0
428 1 8 14.240445405825767 50.011767358482025 0
429 1 9 20.982031170928508 50.209137536838256 0
430 1 8 28.006280410550822 50.270168578077886 0
431 1 9 34.64782846328178 50.2410678962617 0
432 1 8 41.8554069348642 50.03971644838184 0
433 1 7 48.673353394152926 50.13862305206134 0
434 1 6 55.45705697750734 50.3085799943195 0
435 1 10 62.74612432370307 50.06647673841988 0
436 1 10 69.32886898397811 50.00560103330238 0
437 1 10 76.41115364667267 50.38621654504315 0
438 1 6 83.30086535233603 50.22504868068625 0
439 1 7 90.25379234613956 50.30022939294531 0
440 1 8 97.01990729649893 50.311222099522716 0
441 1 9 104.20785083676107 50.33311541878071 0
442 1 8 110.93837736784239 50.05090322034786 0
443 1 9 118.05803523262657 50.29901356892711 0
444 1 8 124.75391031220315 50.05825523262069 0
445 1 7 131.79344465270322 50.28367503762683 0
446 1 6 138.908513075069 50.149038485613765 0
447 1 10 145.49833186387403 50.20158912465486 0
448 1 10 152.6965570580968 50.02538971183271 0
449 1 10 159.40814303737386 50.08515024150919 0
450 1 6 166.64592349903938 50.29299960969688 0
451 1 7 0.29164099542212374 54.08732075375661 0
452 1 6 7.010554471539688 54.11374020990241 0
453 1 6 13.902662624877445 54.02348392307776 0
454 1 9 21.06635173985268 54.226357638009226 0
455 1 9 28.079540235231605 54.26087282588908 0
456 1 9 34.6482942486593 54.13549883245637 0
457 1 6 41.782256875470715 54.101712151776944 0
458 1 6 48.56181462851212 54.10489432335184 0
459 1 7 55.52651640403168 54.18545765684253 0
460 1 6 62.618492722007296 54.21953831970371 0
461 1 6 69.63402089054881 54.10450755880443 0
462 1 6 76.35183389457625 54.08961710637649 0
463 1 7 83.18877078984413 54.27893938749249 0
464 1 6 90.13584231805842 54.288709886497394 0
465 1 6 97.10154734068007 54.39355989375403 0
466 1 9 103.96967044139515 54.26200853253244 0
467 1 9 111.14295213431964 54.32203760465779 0
468 1 9 118.03625696979915 54.06199414005338 0
469 1 6 124.73620436513859 54.098156679526994 0
470 1 6 131.72549930063582 54.284317416089095 0
471 1 7 138.89062943492306 54.3662617978302 0
472 1 6 145.75232390927525 54.24113953958783 0
473 1 6 152.51296326628784 54.05775657916623 0
474 1 6 159.64519437916914 54.02062656618922 0
475 1 7 166.60829518400618 54.1847003444799 0
476 1 3 -3.3039854112156912 56.28762380737913 0
477 1 6 3.825964027576544 56.13323221872104 0
478 1 7 10.683998878850778 56.144290774442915 0
479 1 8 17.530025075951517 56.200041830886974 0
480 1 9 24.601983065889545 56.120137922840655 0
481 1 9 31.237299586790993 56.004240604448995 0
482 1 8 38.160846536610066 56.110473720678215 0
483 1 7 45.14033683977808 56.25660715198794 0
484 1 6 52.332696262711075 56.10714547545495 0
485 1 6 59.20723325483518 56.39264482397319 0
486 1 8 65.93495214192436 56.27164288066675 0
487 1 8 72.83929104298325 56.24383181447666 0
488 1 6 79.85150008253639 56.06827271646794 0
489 1 6 86.83484992717882 56.126496096258265 0
490 1 7 93.8653406039229 56.014101382802195 0
491 1 8 100.61643678593471 56.133342919001585 0
492 1 9 107.5894300649664 56.371853747197775 0
493 1 9 114.63347293636691 56.17105303012845 0
494 1 8 121.59367580402676 56.04561628216379 0
495 1 7 128.51284862477786 56.043960965166136 0
496 1 6 135.25494668386318 56.360347987789865 0
497 1 6 142.13867864096989 56.328058236311406 0
498 1 8 149.2425271707613 56.21955848566687 0
499 1 8 155.91457279582926 56.04277862667815 0
500 1 6 163.16536856288798 56.2626519768462 0
501 1 11 -3.2337194156178883 60.07223577636182 0
502 1 7 3.5965128239703916 60.07930910940778 0
503 1 6 10.77218180305982 60.14820069421679 0
504 1 6 17.529719169785523 60.05124369408094 0
505 1 8 24.639511867527077 60.34129496095628 0
506 1 8 31.557268163742563 60.3862945011536 0
507 1 6 38.12476217858955 60.01445583742251 0
508 1 6 45.42543741600095 60.228951731316535 0
509 1 7 52.22668226383598 60.28134340232261 0
510 1 8 59.04874008089848 60.04347652622768 0
511 1 9 65.83649482623217 60.09647289082824 0
512 1 9 73.05115693619868 60.10762185299126 0
513 1 8 79.84039372092447 60.036116013505534 0
514 1 7 86.9078426364667 60.28995502431212 0
515 1 6 93.84089741253601 60.34272657509211 0
516 1 6 100.83159890873198 60.26769219982739 0
517 1 8 107.44221668691219 60.190174559584044 0
518 1 8 114.61280403378069 60.30371367345352 0
519 1 6 121.59135167668181 60.07887717686774 0
520 1 6 128.5016001073359 60.141183155188685 0
521 1 7 135.37036947584886 60.13670734421898 0
522 1 8 142.3647620932056 60.1683662194244 0
523 1 9 149.07082398451078 60.01130911922614 0
524 1 9 155.98500346141233 60.01804045341093 0
525 1 8 163.10395592543142 60.073993533285666 0
526 1 6 0.18824761266313292 62.27161614441811 0
527 1 6 7.025584057366909 62.03703419595868 0
528 1 7 14.233357315707877 62.02255040829405 0
529 1 6 20.973054057135172 62.032156958134465 0
530 1 6 27.855021986225854 62.08236704285619 0
531 1 6 34.97502396670051 62.28791348553702 0
532 1 7 41.930506775140586 62.136551800489 0
533 1 6 48.65121879804707 62.05322161135191 0
534 1 6 55.76151873775896 62.20830255113713 0
535 1 9 62.41052824845942 62.10152843049706 0
536 1 9 69.55363058775147 62.05027000559974 0
537 1 9 76.48841301498986 62.26377494370856 0
538 1 6 83.14458519456824 62.26365422329725 0
539 1 6 90.34104513970537 62.2916331337465 0
540 1 7 97.16501004516581 62.265590988511924 0
541 1 6 104.31291423867536 62.03031738985494 0
542 1 6 110.98007654774686 62.15524114759501 0
543 1 6 117.91877658334332 62.00350356551573 0
544 1 7 124.85937559144736 62.3528781530665 0
545 1 6 131.96674806149485 62.02442417047153 0
546 1 6 138.8115930567995 62.20097073247278 0
547 1 9 145.74173616045067 62.11703874325237 0
548 1 9 152.44652918926536 62.354603267437376 0
549 1 9 159.60299771810946 62.39309767625363 0
550 1 6 166.58253248667972 62.226993387178645 0
551 1 8 0.23938562729306231 66.05227729701224 0
552 1 7 7.072146082137983 66.33113728517151 0
553 1 6 14.196531682322599 66.01467510312357 0
554 1 10 20.91367686337523 66.33126386741051 0
555 1 10 27.8345115141174 66.1074182524211 0
556 1 10 34.72787586586769 66.29711911745837 0
557 1 6 41.90977513140798 66.14603208712205 0
558 1 7 48.77594558942004 66.19641375485293 0
559 1 8 55.68194884485221 66.04769674996494 0
560 1 9 62.65812782657175 66.01648773235546 0
561 1 8 69.48035417904535 66.10108552922246 0
562 1 9 76.44977249737468 66.04827876937216 0
563 1 8 83.32645100806093 66.17917609858561 0
564 1 7 90.31153693490852 66.03217178519304 0
565 1 6 97.11545730423654 66.32072556172317 0
566 1 10 104.06898371442779 66.36066009552425 0
567 1 10 111.08578474672566 66.01522185216146 0
568 1 10 117.82552664050803 66.17058083650898 0
569 1 6 125.09948968968875 66.03392121126386 0
570 1 7 131.7338458391631 66.16918891795707 0
571 1 8 138.9429693975997 66.34134234176985 0
572 1 9 145.5417468409071 66.10839434536824 0
573 1 8 152.5533542023274 66.1675098268353 0
574 1 9 159.62749603716665 66.16008389260274 0
575 1 8 166.65063505080698 66.05917113259514 0
576 1 4 -3.2227607032147367 68.22380993861805 0
577 1 6 3.6333013905813067 68.26464635941845 0
578 1 6 10.468010024313376 68.05206999925785 0
579 1 6 17.32924731236208 68.2217069362511 0
580 1 6 24.4287900377633 68.1299361036418 0
581 1 6 31.295961114004456 68.05873493100344 0
582 1 6 38.4231158030992 68.03410345092465 0
583 1 6 45.109869346258115 68.07432676412131 0
584 1 6 52.09750149214557 68.17495296469149 0
585 1 9 59.233102465867134 68.36294595808926 0
586 1 8 65.84250242568488 68.15356687833786 0
587 1 8 73.1458353213311 68.2798976454732 0
588 1 9 79.8749271395365 68.36481805193105 0
589 1 6 86.89297031596195 68.19614807209385 0