
14309 atoms
14896 bonds
16659 angles
10 atom types
3 bond types
6 angle types

-5.680607966083864 171.52447279080386 xlo xhi
-2.0 148.0 ylo yhi
-4 4 zlo zhi


Masses

1 0.00024986580783682233
2 0.000535426731078905
3 0.00046403650026838436
4 0.0004997316156736447
5 0.0007852925389157273
6 0.0007139023081052067
7 0.00028556092324208263
8 0.0004997316156736447
9 0.0005711218464841653
10 0.000428341384863124

Pair Coeffs

1 0.40509979849834776 0.44544935907016964 0.5
2 0.40509979849834776 0.44544935907016964 0.5
3 0.40509979849834776 0.44544935907016964 0.5
4 0.40509979849834776 0.44544935907016964 0.5
5 0.40509979849834776 0.44544935907016964 0.5
6 0.40509979849834776 0.44544935907016964 0.5
7 0.40509979849834776 0.44544935907016964 0.5
8 0.40509979849834776 0.44544935907016964 0.5
9 0.40509979849834776 0.44544935907016964 0.5
10 0.40509979849834776 0.44544935907016964 0.5

Bond Coeffs

1 99.94632313472893 0.5
2 114.22436929683306 0.5
3 85.6682769726248 0.5

Angle Coeffs

1 8.319921318741445 180
2 12.41924115217382 180
3 5.239367361073331 180
4 9.964443778235369 120
5 6.429706636308237 120
6 8.319921318741445 120

Atoms

1 1 1 -3.363730390908796 0.38251816131797145 0
2 1 2 3.615243109826595 0.33130165888755947 0
3 1 3 10.653005390819475 0.03414029062398232 0
4 1 3 17.62312802039425 0.3245633099562811 0
5 1 2 24.276293843816042 0.05526425994758593 0
6 1 4 31.403893800387316 0.15382914879976647 0
7 1 4 38.261239070798304 0.04601681877083306 0
8 1 2 45.4050711968737 0.3583811747261237 0
9 1 3 51.96530473845694 0.18891603060826756 0
10 1 3 59.02713365817232 0.2366913924869495 0
11 1 2 65.87089596843894 0.007763508329558366 0
12 1 4 72.97016272146666 0.09207060188735144 0
13 1 4 79.78310858374216 0.2551501966468558 0
14 1 2 86.92243401024123 0.010563495434236804 0
15 1 3 93.90958485825968 0.33191543331310314 0
16 1 3 100.4994802028663 0.17318248308654188 0
17 1 2 107.53646468878662 0.1437581661477065 0
18 1 4 114.42522736351228 0.204074701223461 0
19 1 4 121.55552351318714 0.11130852536861693 0
20 1 2 128.35875524457686 0.20438102761525598 0
21 1 3 135.30260114428873 0.1026096949890893 0
22 1 3 142.09013189114074 0.15144352482589848 0
23 1 2 149.07538491845 0.1754575918726487 0
24 1 4 156.0277859364342 0.16601457136470954 0
25 1 4 162.8205844374876 0.14484697204038333 0
26 1 5 0.35926410976190004 2.1092135631596154 0
27 1 6 7.039908987076776 2.2530374667114725 0
28 1 6 14.032540917509722 2.128176664006345 0
29 1 6 20.927740030527996 2.0807628842455395 0
30 1 5 27.967785673608283 2.1140267456278075 0
31 1 6 34.76017440518397 2.3311492354855528 0
32 1 5 41.65736534352683 2.2861174706467926 0
33 1 6 48.858801879792324 2.201304721660202 0
34 1 6 55.43870118047704 2.2190823494851175 0
35 1 6 62.5813448663307 2.1866328675838433 0
36 1 5 69.55491742350617 2.0850289191433125 0
37 1 6 76.50851122220435 2.2257659984497984 0
38 1 5 83.25947367299698 2.192498251318064 0
39 1 6 90.44465747739262 2.065762636729806 0
40 1 6 97.13557480555247 2.0009798450070884 0
41 1 6 103.99776871377856 2.122678582077127 0
42 1 5 111.1515366939804 2.0914679111924177 0
43 1 6 117.88093230399372 2.09201139928563 0
44 1 5 124.77113976460505 2.1660365279266984 0
45 1 6 131.65176009169443 2.2499689033815256 0
46 1 6 138.57149651280986 2.047956210892938 0
47 1 6 145.6478981931328 2.2221317095124027 0
48 1 5 152.64362037239013 2.0566206759898615 0
49 1 6 159.35482749299464 2.195659422509474 0
50 1 5 166.50432987878932 2.0458802355221812 0
51 1 6 0.15318952677680417 6.015608067402184 0
52 1 5 7.14322020178005 6.031580257274805 0
53 1 6 14.012950704161025 6.1145509294469 0
54 1 5 20.866711309505227 6.135123764507121 0
55 1 6 27.837545911303422 6.365991025632042 0
56 1 6 34.89009584833181 6.3277251519144695 0
57 1 6 41.67366257566684 6.300026242121435 0
58 1 5 48.55645808673228 6.105089947993616 0
59 1 6 55.503541919611635 6.297298229462225 0
60 1 5 62.54964830512913 6.006894945024389 0
61 1 6 69.37624170115674 6.395944934418622 0
62 1 6 76.26694630585982 6.140492161022875 0
63 1 6 83.43645245248405 6.046038786878446 0
64 1 5 90.09423000525574 6.289179515062115 0
65 1 6 97.33327200755224 6.124875341989702 0
66 1 5 104.20580517086967 6.043078936330136 0
67 1 6 111.0775439237936 6.109168972596913 0
68 1 6 118.01951792503615 6.202673243924152 0
69 1 6 125.0762764724856 6.327350673721439 0
70 1 5 131.64291525245662 6.174474770308203 0
71 1 6 138.69350070699304 6.32054587207844 0
72 1 5 145.87882689553777 6.342876197553881 0
73 1 6 152.8006269419925 6.073472618473026 0
74 1 6 159.40455145496358 6.250711583631652 0
75 1 6 166.60954831648337 6.127755744295476 0
76 1 3 -3.246143107083698 8.373912028301032 0
77 1 5 3.6607860281799502 8.154597536261626 0
78 1 5 10.657213269107451 8.106140515065025 0
79 1 5 17.605505433586526 8.130924185682717 0
80 1 5 24.265420493138773 8.277850906615317 0
81 1 6 31.545330239299243 8.069349593760677 0
82 1 6 38.29405002567011 8.00281987673758 0
83 1 5 45.230320513260864 8.123837778717219 0
84 1 5 52.119555075192864 8.306083177933544 0
85 1 5 59.21894275470548 8.278250432235646 0
86 1 5 65.90629250142564 8.108022167146881 0
87 1 6 72.77159307348387 8.105335650002116 0
88 1 6 79.9904747663575 8.20843049767666 0
89 1 5 86.96328495616825 8.087191041421777 0
90 1 5 93.5387505218253 8.299510914962273 0
91 1 5 100.49273006650195 8.237483370690729 0
92 1 5 107.75466088933928 8.355061835618057 0
93 1 6 114.5636224915628 8.254377521189301 0
94 1 6 121.5839828897144 8.350458687891766 0
95 1 5 128.25579816412647 8.042540791180047 0
96 1 5 135.18723745013244 8.258996050008713 0
97 1 5 142.2586346489591 8.174276297089834 0
98 1 5 148.99930090933026 8.158993071032494 0
99 1 6 156.20962255155575 8.322323222600096 0
100 1 6 162.9859967255636 8.06086383174489 0
101 1 3 -3.3414067500170828 12.391728924098327 0
102 1 5 3.6616087266200945 12.329424704975924 0
103 1 5 10.60545233297634 12.240802707015623 0
104 1 5 17.320536895737302 12.34054127740783 0
105 1 5 24.564540021335873 12.028255059331482 0
106 1 6 31.36464384086254 12.1676215270056 0
107 1 6 38.50238677461243 12.363264872909182 0
108 1 5 45.251691521870036 12.161079500961124 0
109 1 5 52.079436710623206 12.069164251631966 0
110 1 5 59.27397962070931 12.39575033296991 0
111 1 5 65.89988612206288 12.050986575368984 0
112 1 6 72.98312052281186 12.283252884960346 0
113 1 6 79.73250917319793 12.23541672103003 0
114 1 5 86.94875014105077 12.311994640750436 0
115 1 5 93.88926065571718 12.27883622486392 0
116 1 5 100.78151136948271 12.295928613513755 0
117 1 5 107.55869829812721 12.209573125076615 0
118 1 6 114.42313046406288 12.038277670899454 0
119 1 6 121.48950737329713 12.247212873981562 0
120 1 5 128.56550152337778 12.335678553099573 0
121 1 5 135.40266237949925 12.137420651116784 0
122 1 5 142.0933438526125 12.12221378721436 0
123 1 5 148.98763208688462 12.057105981079033 0
124 1 6 156.16464062252848 12.145452631267146 0
125 1 6 162.94116706002075 12.329110928363695 0
126 1 6 0.3938358865515486 14.106942947212671 0
127 1 5 7.252012082031333 14.050507867560123 0
128 1 6 13.858048488592333 14.378687119765248 0
129 1 5 21.084494636641782 14.31601168408424 0
130 1 6 27.82125334276942 14.124411270890985 0
131 1 6 34.729516001498716 14.031477357868914 0
132 1 6 41.66034094516176 14.1709949561844 0
133 1 5 48.582334865042824 14.274810448501546 0
134 1 6 55.65951458530716 14.216431387965761 0
135 1 5 62.68371278029394 14.12422244640316 0
136 1 6 69.457753455713 14.187559837167303 0
137 1 6 76.46210987092223 14.262266977963524 0
138 1 6 83.30675193191581 14.286739327528359 0
139 1 5 90.06897797503954 14.3471398824879 0
140 1 6 97.0172572544576 14.065144106485906 0
141 1 5 104.31692091608615 14.274179552342737 0
142 1 6 111.19926760365925 14.101110492136717 0
143 1 6 117.79213329446966 14.143021499743668 0
144 1 6 124.91931993476916 14.247809491061478 0
145 1 5 131.86721306187218 14.292380903154067 0
146 1 6 138.6947506243213 14.14577100910937 0
147 1 5 145.71243616318836 14.371057463021643 0
148 1 6 152.44808517581808 14.162731030738893 0
149 1 6 159.62872451140413 14.119083580722737 0
150 1 6 166.30984662315916 14.197061451857323 0
151 1 5 0.3519121178219794 18.264411018251867 0
152 1 6 7.184961117510045 18.059613559239402 0
153 1 6 14.205166011941317 18.109863198009116 0
154 1 6 21.000263399542877 18.173482583911333 0
155 1 5 27.94113376085588 18.379195349421245 0
156 1 6 34.89414481784863 18.247076690365887 0
157 1 5 41.932277174753324 18.259967289392236 0
158 1 6 48.642810723224194 18.376482867587367 0
159 1 6 55.46130661903572 18.249970745696224 0
160 1 6 62.41549644818033 18.037767665053327 0
161 1 5 69.34040276063631 18.22854876031888 0
162 1 6 76.40822686524281 18.215724646460554 0
163 1 5 83.36843771451049 18.226198314236544 0
164 1 6 90.29705066079657 18.07969123247337 0
165 1 6 97.23983211490054 18.272927324218973 0
166 1 6 104.24354300572885 18.053257663483006 0
167 1 5 111.13437211593869 18.260748906352955 0
168 1 6 117.99141234524575 18.224068541875173 0
169 1 5 124.70931087089375 18.24443266955008 0
170 1 6 131.84512424040645 18.010844193318317 0
171 1 6 138.57377647974477 18.269767129727565 0
172 1 6 145.7065120526476 18.19079430358537 0
173 1 5 152.4380655535342 18.087007378693432 0
174 1 6 159.53827879077144 18.23232053595389 0
175 1 5 166.54352819509208 18.30333162827926 0
176 1 2 -3.1276986579615125 20.15929034757792 0
177 1 5 3.6832579702521424 20.025857047350513 0
178 1 6 10.744362953533429 20.107388815227253 0
179 1 6 17.371799660189048 20.279037632878364 0
180 1 5 24.359773036533806 20.27573884149649 0
181 1 5 31.238943058391907 20.261645171280353 0
182 1 5 38.308496765370386 20.032845954224534 0
183 1 5 45.43331281653304 20.286489295390975 0
184 1 6 52.15822235153427 20.06383912384978 0
185 1 6 58.95973734987698 20.20369898356791 0
186 1 5 65.86626078358564 20.12152450853601 0
187 1 5 73.01544449353429 20.068487570682446 0
188 1 5 80.0031821255923 20.092641086837027 0
189 1 5 86.85567363552357 20.34671498220794 0
190 1 6 93.6423325404462 20.376445482300554 0
191 1 6 100.49629842020528 20.19417314187473 0
192 1 5 107.45846083697262 20.316639921932804 0
193 1 5 114.69756296532434 20.383089169444954 0
194 1 5 121.3271781932128 20.380275508816933 0
195 1 5 128.46202405294923 20.251186221553407 0
196 1 6 135.3796627514239 20.383202114738108 0
197 1 6 142.30530196760947 20.236702207553414 0
198 1 5 149.3188469272695 20.315384232858623 0
199 1 5 156.18189301739466 20.32428506188895 0
200 1 5 163.01368354195935 20.35034758003664 0
201 1 2 -3.2420614854795295 24.054033788026384 0
202 1 5 3.4688340593633193 24.16496652601932 0
203 1 6 10.440959034984054 24.032727289243383 0
204 1 6 17.435632976347662 24.048491868442404 0
205 1 5 24.370175512700825 24.347936629132693 0
206 1 5 31.405343469283643 24.160435228891096 0
207 1 5 38.4423065572629 24.200764078341187 0
208 1 5 45.314182596809744 24.39073987694939 0
209 1 6 52.25147836505887 24.327106167570903 0
210 1 6 59.117033796400754 24.3280406757874 0
211 1 5 65.86956975644763 24.119263047531238 0
212 1 5 72.83304218224168 24.158631720592798 0
213 1 5 80.03603310156657 24.339590618178608 0
214 1 5 86.97945804913681 24.12039305841577 0
215 1 6 93.6177826139786 24.381183916422817 0
216 1 6 100.55243454395104 24.111444560456547 0
217 1 5 107.75208833667129 24.354907632762988 0
218 1 5 114.55590576042806 24.04781305888222 0
219 1 5 121.34866595380072 24.066528952065852 0
220 1 5 128.17604464918537 24.04143744269042 0
221 1 6 135.33736865273002 24.150793636468297 0
222 1 6 142.13659933225782 24.16905524580009 0
223 1 5 149.3198086778276 24.301691568762138 0
224 1 5 155.90473119572417 24.299828479327225 0
225 1 5 163.13053331198236 24.06980519986335 0
226 1 5 0.1512142028818406 26.11491932852496 0
227 1 6 7.235733804837888 26.222381902676247 0
228 1 6 13.975745483963054 26.081651421363667 0
229 1 6 20.802033002729925 26.201314770926565 0
230 1 5 27.81686930201644 26.326740597023054 0
231 1 6 34.95361209563093 26.003118132585847 0
232 1 5 41.91486143329542 26.27126749474163 0
233 1 6 48.62172958936695 26.04532844553863 0
234 1 6 55.679816578234124 26.319153024926838 0
235 1 6 62.60022966449453 26.261908577865707 0
236 1 5 69.61393429236608 26.063487415172276 0
237 1 6 76.3444261566535 26.05600418385199 0
238 1 5 83.51468865313822 26.26722386070804 0
239 1 6 90.3453902298245 26.35860265336953 0
240 1 6 97.18135918261817 26.06064882527158 0
241 1 6 104.28501273742349 26.31301147969782 0
242 1 5 111.06381808799432 26.13683219065631 0
243 1 6 118.11305949655531 26.365436288761234 0
244 1 5 124.94942626954749 26.048337764808267 0
245 1 6 131.9331184311764 26.291457520510402 0
246 1 6 138.61846398042695 26.13302834360123 0
247 1 6 145.6557049600532 26.13102907904281 0
248 1 5 152.75672279126837 26.27240236343448 0
249 1 6 159.48782805872767 26.33921013887301 0
250 1 5 166.3327406355438 26.031315424051417 0
251 1 6 0.37585294423977095 30.28599255891445 0
252 1 5 7.30744697666128 30.375866037581556 0
253 1 6 14.188308200858248 30.314225227282257 0
254 1 5 20.866976916631575 30.346450524195472 0
255 1 6 27.9516352570464 30.316494384494625 0
256 1 6 34.97435419694483 30.076185348912727 0
257 1 6 41.964798052232794 30.37906521804021 0
258 1 5 48.7549407745617 30.163985778180756 0
259 1 6 55.65753905899947 30.228898666508005 0
260 1 5 62.733534942667845 30.248955425896195 0
261 1 6 69.64655290915874 30.1962652211935 0
262 1 6 76.51170145874515 30.34865117802933 0
263 1 6 83.15804223559279 30.050251936546747 0
264 1 5 90.11663520420896 30.144514994922442 0
265 1 6 97.19911236780938 30.319066185500255 0
266 1 5 104.22154623913032 30.298854803770464 0
267 1 6 111.17783814880544 30.12495160634867 0
268 1 6 117.87581286177179 30.378962699845804 0
269 1 6 124.99053581478867 30.20017538253231 0
270 1 5 132.0348723678269 30.202109663426583 0
271 1 6 138.90752004819973 30.313228693544758 0
272 1 5 145.85806131215494 30.26207813460287 0
273 1 6 152.63122641801522 30.369809847253656 0
274 1 6 159.5173097794736 30.155317770912614 0
275 1 6 166.38578062692613 30.01538180011397 0
276 1 3 -3.256170933553463 32.13791498890379 0
277 1 5 3.7573765145246996 32.34241169950556 0
278 1 5 10.487642319760562 32.24214503391182 0
279 1 5 17.438669441552275 32.24886621958237 0
280 1 5 24.562666605226237 32.32625357886376 0
281 1 6 31.45586612727047 32.38344492333993 0
282 1 6 38.446086659775816 32.32138162665787 0
283 1 5 45.07865374880028 32.15680436076271 0
284 1 5 52.12621543599704 32.39088111491276 0
285 1 5 59.007419582290844 32.37331694536723 0
286 1 5 65.88151799577574 32.24453462067892 0
287 1 6 73.12264545831819 32.03812181377052 0
288 1 6 79.90338483055565 32.01764876356926 0
289 1 5 87.00054582503188 32.28404572383107 0
290 1 5 93.79233048060364 32.24558312705105 0
291 1 5 100.66464601718077 32.21468433345366 0
292 1 5 107.6671174563392 32.05335943916528 0
293 1 6 114.4448570141788 32.25909412501134 0
294 1 6 121.43528611178276 32.2577100163044 0
295 1 5 128.26367775872137 32.32502482821127 0
296 1 5 135.22322515446373 32.2658826789923 0
297 1 5 142.05731242380898 32.29411733868177 0
298 1 5 149.13471586331838 32.10110520872047 0
299 1 6 156.08241093002312 32.0811654775745 0
300 1 6 162.898670160598 32.04139348012278 0
301 1 3 -3.1324869989955575 36.21683668829433 0
302 1 5 3.8239449506171956 36.24577421985927 0
303 1 5 10.670131592156984 36.24411606923381 0
304 1 5 17.62581178416048 36.37399972737336 0
305 1 5 24.331624857386895 36.1000917727988 0
306 1 6 31.334991932367565 36.27263932261895 0
307 1 6 38.208704033479556 36.038269442756764 0
308 1 5 45.22558106899972 36.04625039510497 0
309 1 5 52.277664571154624 36.14713008690618 0
310 1 5 59.27172265721219 36.00858040700593 0
311 1 5 66.01770968834359 36.158046237789385 0
312 1 6 72.92313780654341 36.12014060730664 0
313 1 6 79.95063164040654 36.24654588804033 0
314 1 5 86.81745390700249 36.14788557379163 0
315 1 5 93.92833996509394 36.32865055883867 0
316 1 5 100.78267565363286 36.15272250344772 0
317 1 5 107.56975125245718 36.102496871728235 0
318 1 6 114.51519175341663 36.21438191426078 0
319 1 6 121.42527446168691 36.170619186162405 0
320 1 5 128.51893207667828 36.302289505057885 0
321 1 5 135.25600480342112 36.12803365487369 0
322 1 5 142.29685490311215 36.14156031459463 0
323 1 5 149.1451970830213 36.091085400333306 0
324 1 6 156.0276650662587 36.38627003832481 0
325 1 6 162.87144504052122 36.13187890143238 0
326 1 6 0.3261082247664421 38.21552419390082 0
327 1 5 7.000442640803665 38.260673259801415 0
328 1 6 14.038181420256256 38.30412633022481 0
329 1 5 20.930580514243584 38.339802827748336 0
330 1 6 27.98520393005656 38.186923604859125 0
331 1 6 34.91155774918686 38.05766947760965 0
332 1 6 41.71135023545922 38.00491234096094 0
333 1 5 48.507955596650596 38.102274856764225 0
334 1 6 55.64851329645322 38.08817795953253 0
335 1 5 62.65181119462305 38.301732959289396 0
336 1 6 69.42330272258211 38.0122252119382 0
337 1 6 76.46605154247924 38.17488712209009 0
338 1 6 83.25925105448135 38.194083709818614 0
339 1 5 90.20602650699173 38.17310821847229 0
340 1 6 97.20542517329835 38.05480789910687 0
341 1 5 104.08498801736884 38.03955752975649 0
342 1 6 110.85504368147785 38.03071755658342 0
343 1 6 117.930613846044 38.0836796908413 0
344 1 6 124.7395941906992 38.19687273226886 0
345 1 5 132.02816068351865 38.1570874671073 0
346 1 6 138.78614386912096 38.012043675752174 0
347 1 5 145.64362200772885 38.32761346277052 0
348 1 6 152.76807329676814 38.301041601270555 0
349 1 6 159.5509012179346 38.058300886559564 0
350 1 6 166.6721137153678 38.15242171068924 0
351 1 5 0.18697639921349946 42.06146442507342 0
352 1 6 7.125153967827039 42.2003578375606 0
353 1 6 14.150300190256024 42.089673983310696 0
354 1 6 20.954869872761623 42.24972298553458 0
355 1 5 27.86719562705657 42.1291385272555 0
356 1 6 34.70826462976005 42.148877542316114 0
357 1 5 41.92816964437363 42.044931035892965 0
358 1 6 48.68821261149104 42.320370455682834 0
359 1 6 55.64171617949248 42.141536774752154 0
360 1 6 62.58436539102131 42.352127317855555 0
361 1 5 69.43710878779518 42.23535844454551 0
362 1 6 76.49909709402708 42.179494592354544 0
363 1 5 83.47071749389559 42.35453648439765 0
364 1 6 90.38083933247877 42.14673980115755 0
365 1 6 97.0675294981309 42.134787050059735 0
366 1 6 104.13400290015295 42.06011050885653 0
367 1 5 110.89653496768705 42.05750413917295 0
368 1 6 117.82260330552931 42.13463927446534 0
369 1 5 124.79437245337701 42.1969979556548 0
370 1 6 131.99184897295459 42.34954737038663 0
371 1 6 138.82184159156765 42.291236142637956 0
372 1 6 145.73302014660217 42.388558282112044 0
373 1 5 152.74405496527157 42.195511816268834 0
374 1 6 159.70548106197927 42.2299529296563 0
375 1 5 166.47040081698523 42.147582227079766 0
376 1 2 -3.2716852985314153 44.23547836517699 0
377 1 5 3.8473113243869452 44.34489477261873 0
378 1 6 10.591215936267828 44.170934373844204 0
379 1 6 17.678686988946648 44.03444490967478 0
380 1 5 24.4586615921992 44.19600362765288 0
381 1 5 31.43836641572882 44.04269605216466 0
382 1 5 38.33093748347322 44.05986101944927 0
383 1 5 45.21118251937256 44.014670091137575 0
384 1 6 52.30280218483997 44.07887211540523 0
385 1 6 58.93468430148512 44.38751982976239 0
386 1 5 65.98278087603607 44.25455221980009 0
387 1 5 72.97617425669125 44.19582126766291 0
388 1 5 80.06758062783047 44.26509849324763 0
389 1 5 86.69322600053097 44.24740974885551 0
390 1 6 93.6193958442744 44.37362708487497 0
391 1 6 100.61484071725184 44.253961046889444 0
392 1 5 107.71908180861843 44.05259286537078 0
393 1 5 114.48935781735396 44.28536011015691 0
394 1 5 121.29781901341019 44.00041199716073 0
395 1 5 128.4593924309165 44.32333144967874 0
396 1 6 135.31256727235132 44.14541572728726 0
397 1 6 142.42510199611422 44.14668012447189 0
398 1 5 149.16014643008484 44.10271485732639 0
399 1 5 156.16333303170072 44.10818499929578 0
400 1 5 163.12637423211476 44.26590932859625 0
401 1 2 -3.247309545405771 48.03782978668129 0
402 1 5 3.6752770715653558 48.19075953309141 0
403 1 6 10.58922184191861 48.35238413954032 0
404 1 6 17.66413411359086 48.20110055646136 0
405 1 5 24.60624636289938 48.07011053046763 0
406 1 5 31.26458845778233 48.1693376189808 0
407 1 5 38.26120753524688 48.101111699698954 0
408 1 5 45.30497221324627 48.14275110588479 0
409 1 6 52.13616012500143 48.004389207184616 0
410 1 6 59.147326593395995 48.03514692247506 0
411 1 5 65.86550260325653 48.01186248070855 0
412 1 5 72.76750473571933 48.364799778496895 0
413 1 5 79.80134822320728 48.203549635621435 0
414 1 5 86.95649367991744 48.381317320716256 0
415 1 6 93.74622744940986 48.002250190751326 0
416 1 6 100.7027296863802 48.28071792949386 0
417 1 5 107.57028101412381 48.31792417377012 0
418 1 5 114.59049331358861 48.131561067595705 0
419 1 5 121.60815666766709 48.363903953454816 0
420 1 5 128.26197719417783 48.34086116452818 0
421 1 6 135.27119079507526 48.37388265611819 0
422 1 6 142.3369568250317 48.07963140127851 0
423 1 5 149.24795205336332 48.06478787237673 0
424 1 5 156.0721098842526 48.30052128262416 0
425 1 5 162.98930907395382 48.096585021229814 0
426 1 5 0.3790383972011519 50.29660865748267 0
427 1 6 7.186400261446604 50.13970007926691 0
428 1 6 14.035765973619549 50.332895781143534 0
429 1 6 20.883926443295902 50.27896682023328 0
430 1 5 27.75296979223197 50.056719239519694 0
431 1 6 34.98811944369039 50.186003991632624 0
432 1 5 41.844520069477575 50.27782910291701 0
433 1 6 48.70008602644691 50.097041362570536 0
434 1 6 55.55804861180404 50.082998741077986 0
435 1 6 62.40827603004005 50.123363764697686 0
436 1 5 69.45071778788723 50.280737318785704 0
437 1 6 76.3871010495599 50.035636762364874 0
438 1 5 83.53132717963085 50.12807885521175 0
439 1 6 90.31883324158814 50.10230939160951 0
440 1 6 97.05469736078315 50.15487066749634 0
441 1 6 104.23535900252813 50.32888372865929 0
442 1 5 111.05943405021308 50.26478318391928 0
443 1 6 118.17152040792328 50.25560000779289 0
444 1 5 124.92720704730516 50.110650882419336 0
445 1 6 131.82159705528804 50.261678048617924 0
446 1 6 138.75853836103965 50.11485458435512 0
447 1 6 145.50997565106474 50.024426382790644 0
448 1 5 152.52219253672078 50.35674869009625 0
449 1 6 159.3661271485156 50.11101437456713 0
450 1 5 166.4793160075702 50.073341320768996 0
451 1 6 0.0446832042642674 54.320486751645355 0
452 1 5 7.218114298535889 54.35060800473175 0
453 1 6 14.1118351234573 54.173959840435955 0
454 1 5 20.87467242592453 54.021453793236546 0
455 1 6 27.889228581678882 54.07948376755405 0
456 1 6 35.00478340451073 54.099421165824374 0
457 1 6 41.79512127590716 54.03904929161368 0
458 1 5 48.83007802311327 54.043419852660556 0
459 1 6 55.54456174739449 54.24705274957217 0
460 1 5 62.47024146990404 54.386531819109095 0
461 1 6 69.57654050957224 54.11766149131067 0
462 1 6 76.36593958503704 54.057758386103764 0
463 1 6 83.18641724911416 54.12847407306085 0
464 1 5 90.19914270586676 54.275621922991654 0
465 1 6 97.11887611404018 54.1802218788227 0
466 1 5 104.26535172327971 54.175497800371964 0
467 1 6 110.86801983454049 54.17281233194855 0
468 1 6 117.88391258806301 54.20307573411177 0
469 1 6 125.070646280976 54.15262938992076 0
470 1 5 132.00373780535563 54.0056483003196 0
471 1 6 138.7706077584694 54.39725152082508 0
472 1 5 145.80591518038315 54.29368471847143 0
473 1 6 152.61585594880876 54.15492993166763 0
474 1 6 159.73714068814732 54.14756493078545 0
475 1 6 166.46728949257712 54.39640335608087 0
476 1 3 -3.2962932007060615 56.21277887298818 0
477 1 5 3.7879727224266695 56.0762452538401 0
478 1 5 10.571064556443032 56.22474297505282 0
479 1 5 17.460961724235773 56.18455053440106 0
480 1 5 24.56701865894847 56.36077689807545 0
481 1 6 31.533643413857344 56.02193749572622 0
482 1 6 38.417219912438625 56.070602166542955 0
483 1 5 45.325899917167554 56.13828222072547 0
484 1 5 52.08925643872816 56.24989323583949 0
485 1 5 59.269874010189156 56.138173359916635 0
486 1 5 66.16738716279951 56.34963739303597 0
487 1 6 72.91513871689715 56.3868799413139 0
488 1 6 80.00534778943758 56.26855721339818 0
489 1 5 86.65440019837966 56.188583574527016 0
490 1 5 93.80593923150406 56.00216767437314 0
491 1 5 100.66896934098625 56.276712331929545 0
492 1 5 107.64191344142768 56.34603679956777 0
493 1 6 114.33786800421404 56.06481489872835 0
494 1 6 121.48576421768094 56.31593591583541 0
495 1 5 128.47796158955924 56.35876054605024 0
496 1 5 135.19875952102967 56.34905979062861 0
497 1 5 142.423636659521 56.07975242582259 0
498 1 5 149.1057523111314 56.2111579401761 0
499 1 6 156.0089898683156 56.26692601651633 0
500 1 6 163.10332698204925 56.36716455897617 0
501 1 3 -3.3350956576830937 60.16472808709775 0
502 1 5 3.8460271952979426 60.351753035171924 0
503 1 5 10.627095552451143 60.118775943248394 0
504 1 5 17.455474606859273 60.22921049806695 0
505 1 5 24.308997121937125 60.12111588276093 0
506 1 6 31.305161107219174 60.332426732147574 0
507 1 6 38.28939867461111 60.240327020897986 0
508 1 5 45.2527829365517 60.397654543063894 0
509 1 5 52.03635998125446 60.26814444608676 0
510 1 5 59.21301864223673 60.385778891861655 0
511 1 5 65.9796114253511 60.12681054203926 0
512 1 6 72.94037818883861 60.07937675952832 0
513 1 6 79.74935269374818 60.27744523929696 0
514 1 5 86.64435960983204 60.25613162877507 0
515 1 5 93.81261035095616 60.12096679822913 0
516 1 5 100.66069303048401 60.19290073539435 0
517 1 5 107.61770765063699 60.31875031195467 0
518 1 6 114.6545590965061 60.27610369205991 0
519 1 6 121.29104519028054 60.14693091053396 0
520 1 5 128.3983539109552 60.22978316153328 0
521 1 5 135.43647592941568 60.316339849045804 0
522 1 5 142.36306076358986 60.27353431066386 0
523 1 5 149.29554173883255 60.099668380116825 0
524 1 6 156.04086763944468 60.21437391396194 0
525 1 6 163.09831276549144 60.328931767973586 0
526 1 6 0.22452761639915156 62.302530479991226 0
527 1 5 7.241354955527077 62.328559802695956 0
528 1 6 14.112863570159654 62.20033634693533 0
529 1 5 20.99978090058535 62.012630991883356 0
530 1 6 27.999818052779023 62.25291765017895 0
531 1 6 34.776526262446176 62.07037264003078 0
532 1 6 41.59654533894811 62.0562548600786 0
533 1 5 48.76665758913494 62.331541468516136 0
534 1 6 55.816672445751585 62.068404544477055 0
535 1 5 62.628721557673614 62.29423189616276 0
536 1 6 69.59685952291548 62.27076818230933 0
537 1 6 76.56532740167772 62.293791584676626 0
538 1 6 83.18560497576235 62.18006551717044 0
539 1 5 90.18697594261903 62.31250794080608 0
540 1 6 97.03855467802705 62.3461937215684 0
541 1 5 103.93809568067617 62.15648315155722 0
542 1 6 110.85137276960342 62.39128423557196 0
543 1 6 117.87264224252378 62.25905591394926 0
544 1 6 125.07668381009225 62.23719698482674 0
545 1 5 131.85523817598187 62.00681395345197 0
546 1 6 138.78086059708426 62.08481486044214 0
547 1 5 145.6225630391432 62.12937943415963 0
548 1 6 152.70985631106802 62.172671773572915 0
549 1 6 159.60354670286247 62.004751097732694 0
550 1 6 166.3520367766743 62.03452813108252 0
551 1 5 0.12971518762184706 66.038321393968 0
552 1 6 7.142113119930391 66.24382211290133 0
553 1 6 14.16843009710328 66.31278431888309 0
554 1 6 20.887068675744704 66.39141654366455 0
555 1 5 27.998504935390798 66.36888582058776 0
556 1 6 34.68501880148629 66.1477911968116 0
557 1 5 41.67256104333196 66.13777191081886 0
558 1 6 48.57907802475034 66.36657090868353 0
559 1 6 55.473679689632476 66.07008218826981 0
560 1 6 62.58698264955209 66.18195213847854 0
561 1 5 69.33196847163175 66.20939998006612 0
562 1 6 76.47690773014541 66.30967487699719 0
563 1 5 83.1535281270961 66.25274585696806 0
564 1 6 90.16587890680503 66.34922352584151 0
565 1 6 97.09489092673928 66.2911642522981 0
566 1 6 104.2679655382198 66.30604903500515 0
567 1 5 111.07828345563348 66.08572122285065 0
568 1 6 117.96107089501942 66.28668290460153 0
569 1 5 124.95166135434393 66.07414115616687 0
570 1 6 131.9703419141498 66.05673509035458 0
571 1 6 138.73526708926642 66.14742968711337 0
572 1 6 145.84156363101172 66.1714246843749 0
573 1 5 152.5197491326668 66.19519565161396 0
574 1 6 159.45421733934785 66.36090449132071 0
575 1 5 166.38440038247964 66.08118776554622 0
576 1 2 -3.0992730248618234 68.21960088421285 0
577 1 5 3.735656082461452 68.0972746897361 0
578 1 6 10.535657915046933 68.0275992133802 0
579 1 6 17.58773412876529 68.39860632079925 0
580 1 5 24.463913455974406 68.24148903430844 0
581 1 5 31.205705159954636 68.21654253638604 0
582 1 5 38.12764807850699 68.28825268599581 0
583 1 5 45.35398762233431 68.2331481723284 0
584 1 6 52.050525344783736 68.0862587631336 0
585 1 6 59.026130285624255 68.17478575467264 0
586 1 5 66.1699371277682 68.02423920531989 0
587 1 5 73.11417291009094 68.11706507195107 0
588 1 5 79.67742610794474 68.0860835757336 0
589 1 5 87.0014052626369 68.18989799634568 0
590 1 6 93.75127776781314 68.09320886483104 0
591 1 6 100.83256996139991 68.29414755282801 0
592 1 5 107.62846678782124 68.04219319450128 0
593 1 5 114.65294734941817 68.05440457256869 0
594 1 5 121.41487641764446 68.23320861229149 0
595 1 5 128.33712967628023 68.29254463233976 0
596 1 6 135.10870153574587 68.38672063940378 0
597 1 6 142.33670702219183 68.19252410094303 0
598 1 5 149.18906014117653 68.12051278245606 0
599 1 5 156.10734085600075 68.3486294370652 0
600 1 5 162.98287370790393 68.01538278654985 0
601 1 2 -3.261844524575804 72.34248560446358 0
602 1 5 3.509743624795895 72.14808820643847 0
603 1 6 10.780158402548693 72.32086946413645 0
604 1 6 17.67362203240418 72.35453791004758 0