
14309 atoms
14896 bonds
16659 angles
27 atom types
8 bond types
20 angle types

-5.680607966083864 171.52447279080386 xlo xhi
-2.0 148.0 ylo yhi
-4 4 zlo zhi


Masses

1 0.00026173741917346076
2 0.000490757660950239
3 0.0005071162496485803
4 0.00040896471745853247
5 0.0006870607253303345
6 0.00037624754006184986
7 0.0005234748383469215
8 0.0007524950801236998
9 0.0008179294349170649
10 0.0005561920157436041
11 0.0009815153219004777
12 0.0006216263705369694
13 0.000654343547933652
14 0.0007197779027270172
15 0.0009487981445037952
16 0.0009487981445037953
17 0.00042532330615687374
18 0.000981515321900478
19 0.0007524950801236997
20 0.0005234748383469215
21 0.00045804048355355635
22 0.0005889091931402868
23 0.00042532330615687374
24 0.00026173741917346076
25 0.0005561920157436041
26 0.0008506466123137475
27 0.0001963030643800956

Pair Coeffs

1 0.40509979849834776 0.44544935907016964 0.5
2 0.40509979849834776 0.44544935907016964 0.5
3 0.40509979849834776 0.44544935907016964 0.5
4 0.40509979849834776 0.44544935907016964 0.5
5 0.40509979849834776 0.44544935907016964 0.5
6 0.40509979849834776 0.44544935907016964 0.5
7 0.40509979849834776 0.44544935907016964 0.5
8 0.40509979849834776 0.44544935907016964 0.5
9 0.40509979849834776 0.44544935907016964 0.5
10 0.40509979849834776 0.44544935907016964 0.5
11 0.40509979849834776 0.44544935907016964 0.5
12 0.40509979849834776 0.44544935907016964 0.5
13 0.40509979849834776 0.44544935907016964 0.5
14 0.40509979849834776 0.44544935907016964 0.5
15 0.40509979849834776 0.44544935907016964 0.5
16 0.40509979849834776 0.44544935907016964 0.5
17 0.40509979849834776 0.44544935907016964 0.5
18 0.40509979849834776 0.44544935907016964 0.5
19 0.40509979849834776 0.44544935907016964 0.5
20 0.40509979849834776 0.44544935907016964 0.5
21 0.40509979849834776 0.44544935907016964 0.5
22 0.40509979849834776 0.44544935907016964 0.5
23 0.40509979849834776 0.44544935907016964 0.5
24 0.40509979849834776 0.44544935907016964 0.5
25 0.40509979849834776 0.44544935907016964 0.5
26 0.40509979849834776 0.44544935907016964 0.5
27 0.40509979849834776 0.44544935907016964 0.5

Bond Coeffs

1 104.69496766938431 0.5
2 91.60809671071128 0.5
3 117.78183862805736 0.5
4 85.06466123137474 0.5
5 52.347483834692156 0.5
6 111.23840314872082 0.5
7 170.12932246274949 0.5
8 39.26061287601912 0.5

Angle Coeffs

1 9.563044469757454 180
2 6.406492681888295 180
3 13.616131676666377 180
4 5.129396655287384 180
5 1.1953805587196817 180
6 11.470516962870695 180
7 41.035173242299074 180
8 0.5043011732098658 180
9 7.672805270472062 120
10 7.45164809904995 120
11 2.165126151148312 120
12 15.51126519014923 120
13 0.9661265993293312 120
14 9.563044469757454 120
15 11.235228716282327 120
16 1.9389081487686537 120
17 5.129396655287384 120
18 17.92928152780607 120
19 11.470516962870695 120
20 0.9580786667289471 120

Atoms

1 1 1 -3.3287370145502635 0.3795588289813736 0
2 1 2 3.6591023107254457 0.008867687695496108 0
3 1 3 10.558404670737348 0.046233901829817285 0
4 1 4 17.597936860187335 0.2944175258336716 0
5 1 5 24.606886565476202 0.029497403358250684 0
6 1 6 31.460160274734985 0.0934886924199724 0
7 1 6 38.22139415679615 0.2969599059177004 0
8 1 5 45.18918563217618 0.027346955908040507 0
9 1 4 52.0226613411145 0.39442320640133044 0
10 1 3 59.04228091796878 0.05062430596893184 0
11 1 2 66.18718876106662 0.09529396884999636 0
12 1 7 72.90982838687341 0.03827248154368004 0
13 1 7 79.86317424679515 0.3985654007920749 0
14 1 7 86.68861268810245 0.013384828112804836 0
15 1 7 93.7208510416159 0.2325319131004942 0
16 1 7 100.848222909263 0.3947661391239655 0
17 1 2 107.65012089170551 0.17572270505981866 0
18 1 3 114.56350389113538 0.3540601963762412 0
19 1 4 121.4056693447687 0.17543884465106765 0
20 1 5 128.19273602966774 0.33464525239481435 0
21 1 6 135.15058191760616 0.20349141856853412 0
22 1 6 142.10706211404582 0.08009311278336662 0
23 1 5 148.98627686625744 0.018923904629075495 0
24 1 4 156.12224658861263 0.10304315609659481 0
25 1 3 163.16166043506294 0.1814065401707759 0
26 1 8 0.34955933890345287 2.1877049443939267 0
27 1 9 7.2539518355539 2.0442381245241323 0
28 1 10 13.987896466687321 2.0322381824016027 0
29 1 11 20.90371581951614 2.1183559620001824 0
30 1 12 27.85272988927744 2.0982015009833437 0
31 1 13 35.00904785570839 2.3619292210415814 0
32 1 12 41.78199204541496 2.171573330838858 0
33 1 11 48.58310055803035 2.1194907167527983 0
34 1 10 55.64719915191964 2.245623338182772 0
35 1 9 62.40207290093663 2.304843296586908 0
36 1 8 69.31820996157103 2.263769561947059 0
37 1 9 76.27860537575312 2.1228268900042533 0
38 1 9 83.38646111785053 2.1907814464808975 0
39 1 9 90.36660101749175 2.1968433584412184 0
40 1 9 97.23156745105774 2.3518945011687857 0
41 1 8 103.92849458611065 2.2242098033333004 0
42 1 9 111.15577394872128 2.3947824945866194 0
43 1 10 118.14515071847777 2.302564041576179 0
44 1 11 124.75228335796257 2.159644052000429 0
45 1 12 131.99731131619976 2.2537332048763266 0
46 1 13 138.71376765433513 2.2170215089174405 0
47 1 12 145.77793486312873 2.3199236178310203 0
48 1 11 152.7531313530275 2.2137500055914883 0
49 1 10 159.60278970241936 2.039835016831323 0
50 1 9 166.3264371319455 2.0339128452463613 0
51 1 9 0.07559841668477425 6.008095200193953 0
52 1 8 6.933020393763708 6.214929700547376 0
53 1 14 14.158597684175822 6.174472760745118 0
54 1 5 21.08833957081489 6.322882319304561 0
55 1 15 27.854812716206645 6.244437407204646 0
56 1 12 34.77858236371819 6.095482400504421 0
57 1 15 41.61441056322007 6.114692938313216 0
58 1 5 48.68258090352187 6.1236704388871885 0
59 1 14 55.49264634596303 6.224000921822224 0
60 1 8 62.53369853232927 6.204193265172881 0
61 1 9 69.43523716981142 6.206706928257311 0
62 1 14 76.57098187326046 6.214171274938511 0
63 1 14 83.18919567524138 6.247458083710887 0
64 1 14 90.31542774214563 6.302253183603166 0
65 1 14 97.126970890887 6.008877861309911 0
66 1 9 104.2390038816337 6.156095449021479 0
67 1 8 111.14803608295526 6.316004696530976 0
68 1 14 117.86759959603575 6.127446589496622 0
69 1 5 125.03229010154114 6.319959470545577 0
70 1 15 131.66038845148404 6.187320572946009 0
71 1 12 138.82567276362315 6.389993280851323 0
72 1 15 145.81948149642338 6.084393594707404 0
73 1 5 152.74616303153306 6.18179008850628 0
74 1 14 159.63047351311715 6.346992798587629 0
75 1 8 166.40869175052757 6.073817836024117 0
76 1 3 -3.2298076508243554 8.291411429322455 0
77 1 8 3.782357594232401 8.213414880218673 0
78 1 9 10.625170728008916 8.246647125417388 0
79 1 10 17.526044964376247 8.17191412523867 0
80 1 11 24.251103603092023 8.19054144172038 0
81 1 16 31.263907834731068 8.393275600389144 0
82 1 16 38.136881603817464 8.20400483114277 0
83 1 11 45.303451835276476 8.034276679089567 0
84 1 10 52.18402615325049 8.287657333765122 0
85 1 9 59.05449236912709 8.01005778642706 0
86 1 8 65.98764483293317 8.351769800755957 0
87 1 14 73.12434139060393 8.340510967296334 0
88 1 10 80.00983708975774 8.22577533123101 0
89 1 10 86.88910456521054 8.328243304550135 0
90 1 10 93.66518404701797 8.293350820391554 0
91 1 14 100.48216911254782 8.024017714740454 0
92 1 8 107.39135530572759 8.021487984948884 0
93 1 9 114.69890409447393 8.098001077098749 0
94 1 10 121.35901548315846 8.031144718871236 0
95 1 11 128.50784421267295 8.352856958332511 0
96 1 16 135.2558877356135 8.149477143694549 0
97 1 16 142.29827196809495 8.36208698910424 0
98 1 11 149.22177575262043 8.2492578490303 0
99 1 10 156.06797241192817 8.119184492067056 0
100 1 9 163.04826284073135 8.083946467326777 0
101 1 17 -3.2297431144899647 12.002280350365002 0
102 1 9 3.690849501870828 12.133651216934409 0
103 1 8 10.473164947356418 12.01913250122113 0
104 1 14 17.706026510016386 12.278472747666703 0
105 1 5 24.291905980994965 12.276583720203156 0
106 1 18 31.38881323034107 12.006793556840101 0
107 1 18 38.46391108966081 12.060434183044562 0
108 1 5 45.04933352009188 12.30036675241984 0
109 1 14 52.35570463142406 12.231750350134671 0
110 1 8 58.94966514727282 12.179863182239053 0
111 1 9 66.135814921012 12.02726120107362 0
112 1 10 73.02248998393179 12.154470246407035 0
113 1 5 80.07423859633163 12.228845831169258 0
114 1 5 86.77574157985835 12.10049134526097 0
115 1 5 93.88919961493286 12.370239973821564 0
116 1 10 100.82026102919899 12.203075252852392 0
117 1 9 107.63232999147036 12.249363037706841 0
118 1 8 114.57405578959293 12.180570742297636 0
119 1 14 121.35304676266783 12.268685834039283 0
120 1 5 128.39809674682868 12.151996810353483 0
121 1 18 135.1118930603859 12.357183486734371 0
122 1 18 142.29850183321014 12.159396281259896 0
123 1 5 149.2602607988578 12.252908991904892 0
124 1 14 156.28455368099253 12.003309052096867 0
125 1 8 162.89816006096893 12.112796890349564 0
126 1 14 0.1812458929869264 14.261588037309702 0
127 1 8 7.099382850997209 14.353829852184006 0
128 1 9 14.082505268476364 14.294754629011537 0
129 1 10 20.93185134736523 14.141562921573511 0
130 1 5 27.892411386369627 14.036204731666986 0
131 1 5 35.02979615747574 14.023584936360232 0
132 1 5 41.58940640005327 14.352240684739606 0
133 1 10 48.79339882587524 14.316456216825692 0
134 1 9 55.551853680905545 14.026212582053141 0
135 1 8 62.59658088642597 14.09531626746699 0
136 1 14 69.66514717284174 14.190157173694466 0
137 1 5 76.43252679376589 14.037470259208794 0
138 1 18 83.36237643883186 14.067306540289811 0
139 1 18 90.39434340265313 14.117724369553367 0
140 1 5 97.38908130272361 14.173016938493648 0
141 1 14 103.94972530164144 14.280834523240621 0
142 1 8 110.86091640388571 14.050476326849495 0
143 1 9 118.12968616701387 14.379214259720605 0
144 1 10 125.04729389327196 14.181509090673382 0
145 1 5 131.77524717036238 14.15800609590554 0
146 1 5 138.86661029966442 14.273122747560608 0
147 1 5 145.6773508934891 14.268964782143152 0
148 1 10 152.7322961580094 14.043082603544082 0
149 1 9 159.42462798053066 14.154988829517384 0
150 1 8 166.46948188384064 14.320146681261075 0
151 1 10 0.2918660419362381 18.26721187742766 0
152 1 9 7.291108951823917 18.265960378583614 0
153 1 8 14.00034493489483 18.067687197773978 0
154 1 14 21.11663498706165 18.09440566754618 0
155 1 10 27.733983238506596 18.179446841381004 0
156 1 10 34.722260012082316 18.02018997588772 0
157 1 10 41.65625117805623 18.05821261932838 0
158 1 14 48.83250208024703 18.006038190637287 0
159 1 8 55.6205054078163 18.234180502457342 0
160 1 9 62.68654761867836 18.140225451094942 0
161 1 10 69.67002541496632 18.035209961752084 0
162 1 11 76.40734444582048 18.141581148546805 0
163 1 16 83.21182243537967 18.009010763635874 0
164 1 16 90.33693242608042 18.353208136176313 0
165 1 11 97.08120918304516 18.381377661060235 0
166 1 10 104.30316014708859 18.16408153517725 0
167 1 9 111.15762179298409 18.280223020238697 0
168 1 8 117.86420162050473 18.334438874865057 0
169 1 14 124.94268870843841 18.214999217165932 0
170 1 10 131.71562085973954 18.16005992263766 0
171 1 10 138.7570302093621 18.005342228804526 0
172 1 10 145.6726281067309 18.33534136072079 0
173 1 14 152.76479641327927 18.005187085111665 0
174 1 8 159.55010423195557 18.11397654927153 0
175 1 9 166.6635077270735 18.212030069437127 0
176 1 4 -3.290872672144634 20.24934144726333 0
177 1 14 3.5935267131142865 20.234987583420786 0
178 1 8 10.69610702933107 20.394214345838098 0
179 1 9 17.573892829181066 20.04526947099863 0
180 1 14 24.64341352144079 20.018304327363744 0
181 1 14 31.302066616834658 20.296964042695784 0
182 1 14 38.16123283419553 20.2170289091496 0
183 1 14 45.3002583297541 20.204529467842356 0
184 1 9 52.20286871588745 20.21649657063362 0
185 1 8 59.106384801234924 20.085015862162376 0
186 1 14 65.93226288686677 20.136914489858647 0
187 1 5 72.90736481632186 20.066411807248436 0
188 1 15 80.0545398488769 20.017918053800265 0
189 1 12 86.60804296154835 20.39200029369361 0
190 1 15 93.86336285284943 20.20392631550351 0
191 1 5 100.51509662936535 20.237543569574278 0
192 1 14 107.48950900468824 20.39455264719004 0
193 1 8 114.54672068807791 20.146766615075705 0
194 1 9 121.38118036857745 20.15417185722438 0
195 1 14 128.43619631091718 20.38665774487561 0
196 1 14 135.46437180583132 20.349018068319452 0
197 1 14 142.07873852735452 20.206763300951707 0
198 1 14 149.04310221449578 20.236090461553136 0
199 1 9 156.09083723728287 20.14777957550615 0
200 1 8 162.85473123151039 20.131345677594492 0
201 1 10 -3.1415210368197215 24.18801547673348 0
202 1 10 3.662249437162437 24.036538799180274 0
203 1 9 10.493451187602973 24.235014089569034 0
204 1 8 17.60560185866852 24.015004838533155 0
205 1 9 24.493739836747203 24.35349177013564 0
206 1 9 31.281777139032464 24.208652212484814 0
207 1 9 38.234431242312986 24.34773010632009 0
208 1 9 45.04927613678491 24.08325232635775 0
209 1 8 52.0247936710101 24.13408456849166 0
210 1 9 59.01210816880944 24.25437775286853 0
211 1 10 65.92639090561664 24.267643616036054 0
212 1 11 72.85498706422008 24.116592770835545 0
213 1 12 79.72512644496392 24.24709197300411 0
214 1 13 86.66996357997851 24.03831217909555 0
215 1 12 93.53277925650276 24.271897209305003 0
216 1 11 100.54079521582523 24.20788098398284 0
217 1 10 107.54288210041334 24.001196422639275 0
218 1 9 114.47910317247911 24.017558038255565 0
219 1 8 121.52678315993356 24.05943256780593 0
220 1 9 128.38936213629836 24.16984131257826 0
221 1 9 135.41541593139573 24.082138789005405 0
222 1 9 142.2720231890382 24.39997033555703 0
223 1 9 148.95920539199653 24.11969045037489 0
224 1 8 156.2485056448338 24.204778806607223 0
225 1 9 163.12040268977935 24.21163229356661 0
226 1 5 0.2778015916134992 26.113337276457116 0
227 1 14 6.951604749540693 26.190683774530896 0
228 1 8 14.087166015751869 26.32403774302572 0
229 1 19 21.079545413407274 26.063746645441917 0
230 1 19 27.95640631006668 26.364665333292315 0
231 1 19 34.77027424193354 26.181693235818734 0
232 1 19 41.69016939787666 26.130148522281313 0
233 1 19 48.75242429020824 26.186153892679673 0
234 1 8 55.699983824667 26.01336023715392 0
235 1 14 62.57222372190273 26.224579620902315 0
236 1 5 69.67409923862292 26.284828511943523 0
237 1 15 76.22926748083843 26.04881381099949 0
238 1 13 83.13888456667425 26.150730395612502 0
239 1 13 90.10579725408057 26.087377103835486 0
240 1 15 97.01865936913688 26.080992980595624 0
241 1 5 104.08809081722076 26.228006969771336 0
242 1 14 110.86224759853853 26.232174440582114 0
243 1 8 117.87145568561445 26.301286667606828 0
244 1 19 124.74834818654578 26.180675092457534 0
245 1 19 131.85051414996116 26.275010521412135 0
246 1 19 138.77703865553647 26.008322096406776 0
247 1 19 145.65991249800126 26.08910573232079 0
248 1 19 152.64281918360626 26.181829395831535 0
249 1 8 159.4663635085137 26.364243681659037 0
250 1 14 166.43721570962606 26.192097986181203 0
251 1 5 0.26449942512929364 30.224301194668403 0
252 1 14 7.07050490337678 30.252491190497373 0
253 1 8 13.92309186228685 30.38884876985753 0
254 1 19 20.924794292661144 30.26928488374623 0
255 1 19 28.014660092184325 30.29410241317633 0
256 1 19 34.67057880829309 30.068688240621672 0
257 1 19 41.911527731312646 30.124202076605172 0
258 1 19 48.54023745476709 30.057556576198508 0
259 1 8 55.67388623838524 30.293305191434783 0
260 1 14 62.72281458391837 30.06229461854439 0
261 1 5 69.68131104292148 30.352581130612247 0
262 1 15 76.41830471243986 30.30145699967283 0
263 1 13 83.32651718165972 30.144184285317788 0
264 1 13 90.42409236687493 30.13516958705634 0
265 1 15 97.21413844330353 30.384944006624735 0
266 1 5 104.01283188539567 30.18824635486586 0
267 1 14 111.1746761397772 30.22712726386379 0
268 1 8 117.81099940999027 30.360060406146083 0
269 1 19 124.77249022871646 30.312188854386722 0
270 1 19 131.902475050634 30.008804727371988 0
271 1 19 138.89279033912374 30.392357764814623 0
272 1 19 145.84054160510598 30.129139563034222 0
273 1 19 152.6473175454265 30.23336943767828 0
274 1 8 159.71230701811166 30.261357801418935 0
275 1 14 166.44062415899887 30.25561843821601 0
276 1 10 -3.458827546087219 32.0069471704163 0
277 1 10 3.4803831040145936 32.359905753253294 0
278 1 9 10.77205222246124 32.015421838450834 0
279 1 8 17.628954496311817 32.17926676938691 0
280 1 9 24.629436735207275 32.251400762535454 0
281 1 9 31.431230465619638 32.329316280569216 0
282 1 9 38.22475191434115 32.264306384364254 0
283 1 9 45.0659082920588 32.3280902076544 0
284 1 8 52.27493538077909 32.14346952837259 0
285 1 9 58.916512743792325 32.29709743991067 0
286 1 10 65.89098382311768 32.33632915389523 0
287 1 11 73.07015677906654 32.15619122396013 0
288 1 12 79.90918308758435 32.19957643294343 0
289 1 13 86.73354477269582 32.37799564808096 0
290 1 12 93.86821103207764 32.0755950400725 0
291 1 11 100.50495812954132 32.36566801572045 0
292 1 10 107.5129491496012 32.366001706553426 0
293 1 9 114.50859914550935 32.27086084497046 0
294 1 8 121.59315362795886 32.22690143722273 0
295 1 9 128.43733397848894 32.09969472727987 0
296 1 9 135.38229458184094 32.31443950691046 0
297 1 9 142.1912461778033 32.25775618983976 0
298 1 9 149.0244265646958 32.02203022314085 0
299 1 8 156.2479664751581 32.37343345030377 0
300 1 9 162.9338915090023 32.254971750908396 0
301 1 4 -3.3198367546892893 36.263666070407524 0
302 1 14 3.8322905675923993 36.239656200912314 0
303 1 8 10.759156499562435 36.04464543860366 0
304 1 9 17.36077150760691 36.29524318681462 0
305 1 14 24.58021555511094 36.27510347861014 0
306 1 14 31.256540759134403 36.004557012861895 0
307 1 14 38.3252818831832 36.10160475338803 0
308 1 14 45.119040375394526 36.05870500153474 0
309 1 9 52.00064943571879 36.253027384185266 0
310 1 8 59.20265809947488 36.2988328406971 0
311 1 14 66.02908317069125 36.124917852449656 0
312 1 5 72.90288887468157 36.1388219225658 0
313 1 15 79.95733416002676 36.37651095167428 0
314 1 12 86.63915224565937 36.109033160323044 0
315 1 15 93.60541598822809 36.05609257923977 0
316 1 5 100.60296621675757 36.39032824780018 0
317 1 14 107.73477513839305 36.134405919227696 0
318 1 8 114.57611358005731 36.37327777187989 0
319 1 9 121.43393620700775 36.09418409938605 0
320 1 14 128.4032392943938 36.057729056337855 0
321 1 14 135.37186099593958 36.1548000118633 0
322 1 14 142.3853354456869 36.199898210929256 0
323 1 14 149.10226698996055 36.18325115440161 0
324 1 9 156.0909507815356 36.32929081446468 0
325 1 8 162.96947663809019 36.0639203755145 0
326 1 10 0.13552918714394677 38.34423042644755 0
327 1 9 7.325898742395686 38.213803471905436 0
328 1 8 14.181891404970301 38.21448922539012 0
329 1 14 21.093848288191886 38.28398792149937 0
330 1 10 27.720035355590312 38.160759901795046 0
331 1 10 34.789119619534304 38.27577780701473 0
332 1 10 41.615287027004754 38.15864436828436 0
333 1 14 48.855713329587836 38.07017595076685 0
334 1 8 55.54526809624756 38.288301747434154 0
335 1 9 62.465568327572676 38.25158232614183 0
336 1 10 69.57492664881892 38.05194846788963 0
337 1 11 76.54907182895336 38.34680152970891 0
338 1 16 83.1881764053326 38.340469056294424 0
339 1 16 90.29978476633525 38.22165883757594 0
340 1 11 97.10245031775109 38.02116196701943 0
341 1 10 104.19598119873675 38.3767506859606 0
342 1 9 110.93568748599733 38.23539866256607 0
343 1 8 118.04872872512719 38.1654620945622 0
344 1 14 125.08474160238728 38.30846364286282 0
345 1 10 131.94228319653536 38.12218081163872 0
346 1 10 138.70328573654413 38.10463066859435 0
347 1 10 145.60307335353713 38.12050904718883 0
348 1 14 152.78697059367477 38.33616592133657 0
349 1 8 159.7379235831649 38.22958480538376 0
350 1 9 166.35503103463287 38.263970794750335 0
351 1 14 0.037217301982477434 42.125086610186536 0
352 1 8 7.064272465507493 42.38385683301112 0
353 1 9 14.212699180558166 42.34609159259881 0
354 1 10 21.050271327443017 42.25551658670882 0
355 1 5 27.714488374031795 42.07611549042947 0
356 1 5 34.82600807993588 42.394904797484536 0
357 1 5 41.6512693092785 42.096100003803194 0
358 1 10 48.843759200652414 42.3918584073086 0
359 1 9 55.58775432643509 42.27131862108575 0
360 1 8 62.3785293529899 42.388861421132916 0
361 1 14 69.29161613617359 42.182546244354036 0
362 1 5 76.23199100039007 42.2432028836728 0
363 1 18 83.1661330950745 42.11447098250958 0
364 1 18 90.28234608491155 42.05586459577001 0
365 1 5 97.2182076585055 42.18910315415049 0
366 1 14 104.00105499616038 42.32015461829704 0
367 1 8 111.00731689681014 42.15832210162256 0
368 1 9 118.02140713818225 42.1709435348731 0
369 1 10 125.07593064665954 42.12269168915672 0
370 1 5 131.65800507116708 42.367856726170686 0
371 1 5 138.94579610145325 42.05935964475567 0
372 1 5 145.60173550262468 42.339801431156616 0
373 1 10 152.62346420808998 42.234125545832406 0
374 1 9 159.44449311165167 42.03134252812721 0
375 1 8 166.5011135406025 42.155339979343516 0
376 1 17 -3.3620088909495762 44.377497599136014 0
377 1 9 3.6024978651885724 44.0655556736846 0
378 1 8 10.664384001144047 44.35666247529771 0
379 1 14 17.627997241404824 44.174592292599165 0
380 1 5 24.25978733898681 44.07146058045571 0
381 1 18 31.39691149423252 44.098267781755396 0
382 1 18 38.19196909191822 44.019517820318576 0
383 1 5 45.048870581893965 44.033733875899586 0
384 1 14 51.989306091054175 44.23281413328458 0
385 1 8 59.2012718151406 44.23693011503867 0
386 1 9 66.03220105963742 44.371661270611376 0
387 1 10 72.93382697056882 44.35156831124845 0
388 1 5 79.81061623033135 44.29699650623061 0
389 1 5 86.85447539811376 44.15023093971558 0
390 1 5 93.92238026352102 44.20836235381868 0
391 1 10 100.72790148546858 44.22693922858612 0
392 1 9 107.4894637109508 44.11334302614088 0
393 1 8 114.5344154055925 44.15450625236426 0
394 1 14 121.53659780327115 44.320460806320064 0
395 1 5 128.1878130974036 44.39686240534882 0
396 1 18 135.27459024441 44.269053693148436 0
397 1 18 142.06305000150687 44.35694606595749 0
398 1 5 149.0118610334575 44.196774164324516 0
399 1 14 155.95542551412322 44.190015555500416 0
400 1 8 163.11253697863486 44.191481496216554 0
401 1 3 -3.2843867314768134 48.395523206404164 0
402 1 8 3.699302298364132 48.225318987485394 0
403 1 9 10.54568325330683 48.34706889636176 0
404 1 10 17.46383175898286 48.01987808232079 0
405 1 11 24.574934987975798 48.32547407164914 0
406 1 16 31.42031528695187 48.01249395441175 0
407 1 16 38.44803765458236 48.11436628917929 0
408 1 11 45.26549777410459 48.264223187706214 0
409 1 10 52.218184507634795 48.077081510708965 0
410 1 9 59.242005481517715 48.1780338124181 0
411 1 8 66.04389419391454 48.366872233101745 0
412 1 14 72.80109587165963 48.26006644167504 0
413 1 10 79.90439520239129 48.10308503726149 0
414 1 10 86.6468823028224 48.203933783669335 0
415 1 10 93.59359763653744 48.37561118194679 0
416 1 14 100.84523531959711 48.31592201041568 0
417 1 8 107.49120316334457 48.05985860977195 0
418 1 9 114.64240823156518 48.20453530451125 0
419 1 10 121.35105731242997 48.395423335413376 0
420 1 11 128.26578801769278 48.27199960360563 0
421 1 16 135.42196234194043 48.13837906025567 0
422 1 16 142.3272686165096 48.005340948799116 0
423 1 11 148.98077668598648 48.06885587183326 0
424 1 10 156.02042559684278 48.04981058975396 0
425 1 9 162.96276153176981 48.34468094672746 0
426 1 9 0.34676139778446685 50.155359174629545 0
427 1 8 7.052150466684544 50.06756421097956 0
428 1 14 13.976217765904515 50.050295634857925 0
429 1 5 21.079615698512924 50.13358043770789 0
430 1 15 27.766633553009736 50.21183011850205 0
431 1 12 34.91151013846613 50.38865515227147 0
432 1 15 41.639641859270824 50.04054228542361 0
433 1 5 48.83528829175766 50.249349289609 0
434 1 14 55.62552633466531 50.249705287790505 0
435 1 8 62.446496242144285 50.03683477757649 0
436 1 9 69.56889865653226 50.108483717671156 0
437 1 14 76.25601389265928 50.374823884868 0
438 1 14 83.52685867393825 50.160409426037894 0
439 1 14 90.46660422694913 50.02835920154228 0
440 1 14 97.1605308630119 50.33246587420785 0
441 1 9 104.12021345308868 50.05236439841715 0
442 1 8 110.86512424019503 50.1116381275157 0
443 1 14 117.93815566273615 50.017937463038514 0
444 1 5 125.00323842633692 50.295881291473904 0
445 1 15 131.90406930263822 50.00365909843816 0
446 1 12 138.82928749354645 50.37341670978017 0
447 1 15 145.6842797452553 50.151453631181695 0
448 1 5 152.48972547921147 50.29070919237156 0
449 1 14 159.41277832128455 50.16615397599502 0
450 1 8 166.3693596971213 50.02020474227946 0
451 1 8 0.31311571197262256 54.00303058081464 0
452 1 9 7.11764831935802 54.10200159943719 0
453 1 10 14.046423555166648 54.01438864471343 0
454 1 11 21.101556485826148 54.031182429550356 0
455 1 12 27.728171359428806 54.18306664785477 0
456 1 13 34.79147492391631 54.267286525374544 0
457 1 12 41.814543144516456 54.256610215846315 0
458 1 11 48.7482508419064 54.254341102841266 0
459 1 10 55.43681418238256 54.006600327382074 0
460 1 9 62.41636155181138 54.04079650289624 0
461 1 8 69.51849833026326 54.144145687106125 0
462 1 9 76.40883455433791 54.12546060634178 0
463 1 9 83.20563913306852 54.03097296444145 0
464 1 9 90.11205973722828 54.071292657382784 0
465 1 9 97.3773309664104 54.07469498677048 0
466 1 8 104.05105902716242 54.01948328334374 0
467 1 9 110.94481187762622 54.00775981813896 0
468 1 10 118.07530806113071 54.09514024480946 0
469 1 11 125.06149062493618 54.09665205404839 0
470 1 12 131.92265767912912 54.19591285310435 0
471 1 13 138.6845010210889 54.1677562000171 0
472 1 12 145.85213455753964 54.26307357978363 0
473 1 11 152.5705539744009 54.026562546073684 0
474 1 10 159.45275836759018 54.30909301940848 0
475 1 9 166.29372928434316 54.33379433136656 0
476 1 2 -3.1892588530860286 56.28455135863444 0
477 1 8 3.8336717551346022 56.186041308814914 0
478 1 14 10.722356991232504 56.33603104836308 0
479 1 5 17.39147555869749 56.293359225092765 0
480 1 15 24.43902656172106 56.205462690104156 0
481 1 13 31.57090526758674 56.04542178508243 0
482 1 13 38.1603546501805 56.014964674739204 0
483 1 15 45.09669376132982 56.16302092788544 0
484 1 5 52.21931708654381 56.15952288019828 0
485 1 14 59.1341495934393 56.364713045574575 0
486 1 8 65.94867430744492 56.349114683107295 0
487 1 19 73.115667728659 56.2409796823413 0
488 1 19 79.77012734080752 56.16860215035822 0
489 1 19 86.79546282841842 56.11205128422018 0
490 1 19 93.86202372874675 56.13919179035498 0
491 1 19 100.76021733311156 56.173896519556735 0
492 1 8 107.70154659395202 56.01620916482587 0
493 1 14 114.59995105893113 56.00941729672567 0
494 1 5 121.64154410393843 56.02657165648057 0
495 1 15 128.25982078156676 56.278748972865024 0
496 1 13 135.12732595802248 56.10440637569797 0
497 1 13 142.22533602970867 56.04163969880242 0
498 1 15 149.07711175590143 56.11984398256793 0
499 1 5 155.9777080447404 56.110720812426834 0
500 1 14 162.84668957399273 56.19939696658968 0
501 1 2 -3.4002302689999357 60.19333866426113 0
502 1 8 3.821058053293676 60.33959287787735 0
503 1 14 10.7195869790316 60.11729640842623 0
504 1 5 17.684539699919746 60.05425396887045 0
505 1 15 24.33449797976796 60.10682378703991 0
506 1 13 31.313646316807862 60.19360715054478 0
507 1 13 38.330673510115126 60.14741477366431 0
508 1 15 45.07535045637608 60.15883551570209 0
509 1 5 52.19140195276521 60.050109563303394 0
510 1 14 59.140331966425585 60.29035096548484 0
511 1 8 66.20757084636718 60.358124755038 0
512 1 19 73.05084222047887 60.305708210787806 0
513 1 19 79.67444176850849 60.02801028271135 0
514 1 19 86.84915503354813 60.222154073650145 0
515 1 19 93.68826139802404 60.09953801482684 0
516 1 19 100.64108680678602 60.0345871052967 0
517 1 8 107.74198882064948 60.28608735106621 0
518 1 14 114.4985041134511 60.292420415882916 0
519 1 5 121.56033241807047 60.0452582440828 0
520 1 15 128.2983826731764 60.12912540856494 0
521 1 13 135.37299034466542 60.015528949119776 0
522 1 13 142.1357749613514 60.23847240972324 0
523 1 15 149.17442068458755 60.09970425429411 0
524 1 5 155.88882273246634 60.18192289599584 0
525 1 14 163.12354629238175 60.2970986438707 0
526 1 8 0.3042698000837006 62.0924306974401 0
527 1 9 7.095599962448651 62.07627247520247 0
528 1 10 14.01228081351692 62.22778505661603 0
529 1 11 20.829674043273794 62.32877940133431 0
530 1 12 27.85084965375011 62.36803902018424 0
531 1 13 34.95463181993196 62.32227358174047 0
532 1 12 41.95877281890585 62.363679167931686 0
533 1 11 48.86562363280936 62.28010079955629 0
534 1 10 55.44202772334493 62.14019769075309 0
535 1 9 62.484146632574365 62.395437855247394 0
536 1 8 69.36025656844889 62.19805496957109 0
537 1 9 76.26109463314924 62.362267644064886 0
538 1 9 83.51624094165942 62.17572027799053 0
539 1 9 90.39858342086724 62.10883183170278 0
540 1 9 97.31996717677616 62.0967744524279 0
541 1 8 104.17709796399643 62.3093844666931 0
542 1 9 111.05736733253983 62.24003550729137 0
543 1 10 117.91619245366273 62.047830300418426 0
544 1 11 124.98438221972754 62.06497687294596 0
545 1 12 131.94836954551985 62.17489626607506 0
546 1 13 138.79847014451747 62.000829479867804 0
547 1 12 145.52012399695934 62.24141694170449 0
548 1 11 152.46284397801543 62.346267277692355 0
549 1 10 159.53679317427236 62.29621797588713 0
550 1 9 166.53384570303197 62.01001498671029 0
551 1 9 0.0014841944651930118 66.15833313270507 0
552 1 8 7.061644541809917 66.08844270812033 0
553 1 14 14.113392198829004 66.2148848553601 0
554 1 5 20.814928643651186 66.15661043605559 0
555 1 15 27.733019667492535 66.23622880232685 0
556 1 12 34.67067236423089 66.39878083186566 0
557 1 15 41.76656820230815 66.32988424952993 0
558 1 5 48.620868714035275 66.04034015501762 0
559 1 14 55.7068512930892 66.21219431368453 0
560 1 8 62.423164122248416 66.31641004091031 0