
14309 atoms
14896 bonds
16659 angles
23 atom types
6 bond types
16 angle types

-5.680607966083864 171.52447279080386 xlo xhi
-2.0 148.0 ylo yhi
-4 4 zlo zhi


Masses

1 0.00030020637172707346
2 0.0007805365664903909
3 0.00024016509738165873
4 0.0003902682832451954
5 0.0006004127434541469
6 0.0010807429382174644
7 0.0007204952921449762
8 0.0003602476460724881
9 0.000960660389526635
10 0.0010207016638720497
11 0.0009006191151812203
12 0.0006604540177995615
13 0.0011407842125628791
14 0.001140784212562879
15 0.0009606603895266349
16 0.0005403714691087321
17 0.0010807429382174642
18 0.0006004127434541469
19 0.0009606603895266349
20 0.00024016509738165873
21 0.0005403714691087321
22 0.0008405778408358056
23 0.0007204952921449762

Pair Coeffs

1 0.40509979849834776 0.44544935907016964 0.5
2 0.40509979849834776 0.44544935907016964 0.5
3 0.40509979849834776 0.44544935907016964 0.5
4 0.40509979849834776 0.44544935907016964 0.5
5 0.40509979849834776 0.44544935907016964 0.5
6 0.40509979849834776 0.44544935907016964 0.5
7 0.40509979849834776 0.44544935907016964 0.5
8 0.40509979849834776 0.44544935907016964 0.5
9 0.40509979849834776 0.44544935907016964 0.5
10 0.40509979849834776 0.44544935907016964 0.5
11 0.40509979849834776 0.44544935907016964 0.5
12 0.40509979849834776 0.44544935907016964 0.5
13 0.40509979849834776 0.44544935907016964 0.5
14 0.40509979849834776 0.44544935907016964 0.5
15 0.40509979849834776 0.44544935907016964 0.5
16 0.40509979849834776 0.44544935907016964 0.5
17 0.40509979849834776 0.44544935907016964 0.5
18 0.40509979849834776 0.44544935907016964 0.5
19 0.40509979849834776 0.44544935907016964 0.5
20 0.40509979849834776 0.44544935907016964 0.5
21 0.40509979849834776 0.44544935907016964 0.5
22 0.40509979849834776 0.44544935907016964 0.5
23 0.40509979849834776 0.44544935907016964 0.5

Bond Coeffs

1 120.08254869082937 0.5
2 192.13207790532698 0.5
3 48.033019476331745 0.5
4 108.07429382174642 0.5
5 168.11556816716111 0.5
6 144.09905842899525 0.5

Angle Coeffs

1 14.429737976245233 180
2 59.10420675070046 180
3 0.9235032304796947 180
4 10.519278984682773 180
5 39.595201006816914 180
6 24.934587222951762 180
7 23.196313481436604 120
8 0.9235032304796947 120
9 1.6979416267836014 120
10 30.59951133263848 120
11 14.429737976245233 120
12 1.7359083279693512 120
13 16.622459852559476 120
14 10.519278984682773 120
15 18.280489166386925 120
16 24.934587222951762 120

Atoms

1 1 1 -3.439328645463118 0.07429248832133864 0
2 1 2 3.5486711693978576 0.16457131822361792 0
3 1 3 10.766277418707492 0.08436597934961815 0
4 1 4 17.40372044452783 0.2781982752194138 0
5 1 2 24.279092359808754 0.19016809976676768 0
6 1 5 31.177638377969988 0.16082613561351267 0
7 1 5 38.15221974331355 0.04470623706733617 0
8 1 2 45.20914202767757 0.3100917067918176 0
9 1 4 52.13366650440761 0.10397815858812019 0
10 1 3 58.99724486624662 0.038483681585705566 0
11 1 2 66.09889063516303 0.18247010732856453 0
12 1 5 72.87715347366763 0.3718075751295582 0
13 1 5 79.85659665464289 0.10401336463296335 0
14 1 5 86.69134640606501 0.2616515297412798 0
15 1 5 93.57856097561883 0.1757549958503505 0
16 1 5 100.63544974784803 0.3139675590291277 0
17 1 2 107.67106595456558 0.231106206708082 0
18 1 3 114.4721792836344 0.01459864856620623 0
19 1 4 121.61272168356298 0.29505017925360333 0
20 1 2 128.36053876579876 0.0022299119599637597 0
21 1 5 135.35852705530797 0.17790151879568136 0
22 1 5 142.21555147131198 0.0218571638619129 0
23 1 2 149.11461674053174 0.0019314286522635006 0
24 1 4 155.93579415532 0.20743612383686758 0
25 1 3 163.03277777026025 0.272726666893105 0
26 1 6 0.08649213724621543 2.0885872116588877 0
27 1 7 7.067670555717456 2.3713986847049946 0
28 1 8 14.156279366809489 2.1749561123108707 0
29 1 9 21.055196097882938 2.3189472119564454 0
30 1 10 28.03043889444327 2.099744954518367 0
31 1 11 34.692097520156025 2.2897191863505593 0
32 1 10 41.92787789141112 2.2836778169042176 0
33 1 9 48.63931730051326 2.1349946505917865 0
34 1 8 55.48090431832448 2.090887173808465 0
35 1 7 62.519129400689366 2.2486856600236003 0
36 1 6 69.41666908916766 2.1447370693424417 0
37 1 7 76.51117781478759 2.369322678494643 0
38 1 7 83.25527345794231 2.2792264628868093 0
39 1 7 90.29767070870724 2.08257810208072 0
40 1 7 97.28812349063836 2.349096404896894 0
41 1 6 103.9267057984301 2.1518523729269843 0
42 1 7 111.04876220855544 2.3142917514351633 0
43 1 8 117.86268687722765 2.2996748562882567 0
44 1 9 124.80661714656397 2.2564845535822253 0
45 1 10 131.77610915049246 2.2863250085599685 0
46 1 11 138.927771778753 2.3192156882485935 0
47 1 10 145.79145366396028 2.1057683416988344 0
48 1 9 152.46193620027208 2.3941929637684503 0
49 1 8 159.6465782338449 2.1411291358097158 0
50 1 7 166.58413677218923 2.151507954648457 0
51 1 7 0.0025840372064102725 6.1182019385106114 0
52 1 6 7.049770640097907 6.120692201241785 0
53 1 8 14.096250241644729 6.006056331868552 0
54 1 12 21.090938716902432 6.280333322267352 0
55 1 13 27.858839741747754 6.095925415187473 0
56 1 10 34.99809079718665 6.090148934872128 0
57 1 13 41.57584481153212 6.161072071113062 0
58 1 12 48.64298198388642 6.218122329687854 0
59 1 8 55.444155340258305 6.037842145976094 0
60 1 6 62.576405675349044 6.077328987314604 0
61 1 7 69.56202537055343 6.195489584345646 0
62 1 8 76.2816564065385 6.1793547069903365 0
63 1 8 83.28962543330131 6.128475030272824 0
64 1 8 90.29942327106653 6.1312551881284385 0
65 1 8 97.26223789930509 6.127954006682569 0
66 1 7 104.12518254629023 6.305002850997315 0
67 1 6 111.10557518556796 6.209367639187004 0
68 1 8 118.02650186409495 6.269348758601234 0
69 1 12 125.04229935721074 6.111834323803202 0
70 1 13 131.9119516935744 6.181530892347144 0
71 1 10 138.81780459691078 6.219317871128615 0
72 1 13 145.55767240922253 6.143615045748398 0
73 1 12 152.46160802738842 6.084904566389092 0
74 1 8 159.4543270255749 6.366043330576958 0
75 1 6 166.5862828728154 6.235076549180977 0
76 1 3 -3.1621925852134973 8.14310795793537 0
77 1 6 3.685272530478307 8.32759034832684 0
78 1 7 10.63107387844194 8.260589116951676 0
79 1 8 17.66991648154794 8.341537674021628 0
80 1 9 24.564143536705572 8.199664630106973 0
81 1 14 31.446912341210684 8.39494820754604 0
82 1 14 38.28867367990224 8.394924141893487 0
83 1 9 45.332795526868736 8.373605476165203 0
84 1 8 52.084537249572406 8.088162679356573 0
85 1 7 59.029283484263914 8.30050875885915 0
86 1 6 66.11717255822296 8.270159574600312 0
87 1 8 72.97318987080038 8.189439924594799 0
88 1 8 79.68072164192972 8.396309104994055 0
89 1 8 86.78905887921057 8.263492231094407 0
90 1 8 93.57208024363676 8.14252317068726 0
91 1 8 100.7095548961869 8.174333154368542 0
92 1 6 107.48731433306472 8.153905413218947 0
93 1 7 114.69467217366467 8.109677351801485 0
94 1 8 121.6368906692669 8.334304623719955 0
95 1 9 128.56945019469623 8.391648727072807 0
96 1 14 135.2512633610853 8.178287286106011 0
97 1 14 142.14961062640864 8.347131449384776 0
98 1 9 149.05911593216345 8.218509180286642 0
99 1 8 156.18842301289777 8.107665113368816 0
100 1 7 163.10313550463573 8.041373080141708 0
101 1 3 -3.3139140824241666 12.198679664831555 0
102 1 7 3.634227659512438 12.023509852471657 0
103 1 6 10.62891469901324 12.19659564422734 0
104 1 8 17.570905450853477 12.200620305428211 0
105 1 12 24.489025484743227 12.082721316506973 0
106 1 15 31.34203334368027 12.220181357810825 0
107 1 15 38.233602212878274 12.192725375201686 0
108 1 12 45.05108058523174 12.24987375903015 0
109 1 8 51.963259028283574 12.243483373283434 0
110 1 6 59.138161741550775 12.232584575221416 0
111 1 7 66.20907843909403 12.173465058927306 0
112 1 8 72.97525996541063 12.114509338343398 0
113 1 12 79.99696235946594 12.157463958148455 0
114 1 12 86.7566794826882 12.07975697920691 0
115 1 12 93.83568022776277 12.0398267639092 0
116 1 8 100.7052484995973 12.219322459876512 0
117 1 7 107.39800706954067 12.306350800282505 0
118 1 6 114.57317116612457 12.083892468841821 0
119 1 8 121.56875054827498 12.087323910748545 0
120 1 12 128.5143941596718 12.195030240621673 0
121 1 15 135.19555914578004 12.094797852332022 0
122 1 15 142.0458980058351 12.067823781842778 0
123 1 12 149.02667483398957 12.204967221094448 0
124 1 8 156.01757601451163 12.166187402465281 0
125 1 6 162.8639515994566 12.381910326234062 0
126 1 8 0.10311967526092576 14.190190798437593 0
127 1 6 7.096823961111407 14.329813369332475 0
128 1 7 14.084462925991911 14.342251109470062 0
129 1 8 21.181059452753072 14.002223957448626 0
130 1 12 28.02064747967197 14.251556291644578 0
131 1 12 35.01341562870325 14.302281007684273 0
132 1 12 41.94411829311322 14.052798787329749 0
133 1 8 48.56626600349808 14.159249768985465 0
134 1 7 55.70122675456152 14.068249076210183 0
135 1 6 62.467993807662786 14.356732697327784 0
136 1 8 69.37661713220349 14.29731663155242 0
137 1 12 76.32795742069749 14.34558969670149 0
138 1 15 83.24907063021024 14.035396029340564 0
139 1 15 90.28824664432555 14.008464588278356 0
140 1 12 97.35693555376591 14.083018777014058 0
141 1 8 103.96928594857228 14.021548942830105 0
142 1 6 111.2377403705289 14.093597185270294 0
143 1 7 117.88177935863975 14.12470888517026 0
144 1 8 124.91934381863955 14.17388269563009 0
145 1 12 131.9780146829833 14.203819072396579 0
146 1 12 138.74862790336525 14.28616122282977 0
147 1 12 145.6058468020672 14.087932640823672 0
148 1 8 152.7652259967476 14.340644601159466 0
149 1 7 159.5956410835585 14.004825638883792 0
150 1 6 166.67431655094754 14.12561651321388 0
151 1 8 0.35609225657927585 18.029207939190613 0
152 1 7 7.271741711457559 18.171876807152795 0
153 1 6 14.104520733342584 18.073033012355314 0
154 1 8 20.952338511857562 18.052283792341225 0
155 1 8 28.01387503923387 18.348002302164893 0
156 1 8 34.70686458415284 18.13638156290684 0
157 1 8 41.830753228112556 18.232733225480757 0
158 1 8 48.536953945792625 18.069566431687928 0
159 1 6 55.50652388758566 18.066800138828334 0
160 1 7 62.71016371246773 18.01994979591534 0
161 1 8 69.38661763151522 18.304074862016364 0
162 1 9 76.40782006698896 18.393251516437452 0
163 1 14 83.3997844550813 18.259771805991406 0
164 1 14 90.2991894039525 18.16964940457646 0
165 1 9 97.16959293085317 18.21412650833117 0
166 1 8 103.9776676627152 18.376905388286072 0
167 1 7 111.18875663880397 18.18582440916471 0
168 1 6 118.0995635889725 18.316848467275396 0
169 1 8 125.0805191465629 18.193099347846534 0
170 1 8 131.84215680593536 18.07132887998521 0
171 1 8 138.7585645418123 18.34615330756826 0
172 1 8 145.88270363267682 18.088507529306373 0
173 1 8 152.76154008824872 18.18864679508925 0
174 1 6 159.6173701391451 18.14409554653714 0
175 1 7 166.63491872953387 18.373640547907907 0
176 1 4 -3.366179748438951 20.101194781716934 0
177 1 8 3.476124416290952 20.256696677412908 0
178 1 6 10.501053016634659 20.29219491025968 0
179 1 7 17.417629137639693 20.179804846868045 0
180 1 8 24.37822168816277 20.29136889114224 0
181 1 8 31.185369656956482 20.333247636901024 0
182 1 8 38.341562696664504 20.262524114249533 0
183 1 8 45.42872473861497 20.29796524568409 0
184 1 7 52.02508690406593 20.190695307532394 0
185 1 6 58.96730522703198 20.398111603942674 0
186 1 8 66.06085659429384 20.007941673716065 0
187 1 12 73.0971720220002 20.163421400077045 0
188 1 13 79.76892557950809 20.046527748912112 0
189 1 10 86.65924530269812 20.25899598991112 0
190 1 13 93.68846419627793 20.16057943398413 0
191 1 12 100.70829481129232 20.04285284673411 0
192 1 8 107.46494394663658 20.348171987905797 0
193 1 6 114.49456466281724 20.13897153825169 0
194 1 7 121.47183590432157 20.134331082372395 0
195 1 8 128.30088410958513 20.195013469946193 0
196 1 8 135.3228621079485 20.011139871931004 0
197 1 8 142.1209198985834 20.333215289170496 0
198 1 8 149.16319264144832 20.218017440433478 0
199 1 7 156.22089885901048 20.245004732654436 0
200 1 6 163.02369360127597 20.1060322988676 0
201 1 16 -3.3368131048222844 24.020136653020415 0
202 1 8 3.7530520851481817 24.13684510979274 0
203 1 7 10.479968325621774 24.037302135081756 0
204 1 6 17.687434945457664 24.339970413870592 0
205 1 7 24.6358247176671 24.124742749741696 0
206 1 7 31.54622664206949 24.13836235583562 0
207 1 7 38.348500595418386 24.246238513797582 0
208 1 7 45.281206775655356 24.302666728248045 0
209 1 6 52.289457647140686 24.328057775961234 0
210 1 7 59.24691308978702 24.215609912464277 0
211 1 8 66.02314907261935 24.114003701113422 0
212 1 9 72.7498957330171 24.309940341101218 0
213 1 10 79.85468897829998 24.088455318344003 0
214 1 11 86.65283851917239 24.059199755934152 0
215 1 10 93.73408890374813 24.306754631662894 0
216 1 9 100.74282108264107 24.28602035084579 0
217 1 8 107.56866276430135 24.11314264748976 0
218 1 7 114.50818197068995 24.201845513404805 0
219 1 6 121.6234997903999 24.164142714530435 0
220 1 7 128.56616875100087 24.056760924069387 0
221 1 7 135.23057716347083 24.207479095352433 0
222 1 7 142.40209380273032 24.35776374542256 0
223 1 7 149.14242874851774 24.17821878249925 0
224 1 6 156.07986825357477 24.250222776583644 0
225 1 7 163.2008895828298 24.374221648097357 0
226 1 12 0.0829550017369289 26.09279736914637 0
227 1 8 7.000264690372378 26.13831416660459 0
228 1 6 13.948908587412067 26.009664425006434 0
229 1 17 21.164326170470723 26.118518160161102 0
230 1 17 28.10024746165002 26.292809583341416 0
231 1 17 34.69423778027496 26.25371209826826 0
232 1 17 41.67668549753673 26.180699313114804 0
233 1 17 48.71037223690923 26.133999525871953 0
234 1 6 55.584186060036174 26.043001368209918 0
235 1 8 62.48588881748583 26.246250303258968 0
236 1 12 69.31168384693697 26.2236692779932 0
237 1 13 76.38416957361665 26.168304909171354 0
238 1 11 83.30640483195644 26.038738285826668 0
239 1 11 90.39884165225601 26.169442226612016 0
240 1 13 97.34072088976788 26.323880432975006 0
241 1 12 104.26943441225387 26.326127227146493 0
242 1 8 110.92802416521577 26.101393687101236 0
243 1 6 117.9089419238325 26.36430131446465 0
244 1 17 125.06374194753374 26.002048406000895 0
245 1 17 131.96080454894516 26.31711182052074 0
246 1 17 138.84971087088644 26.2448437816013 0
247 1 17 145.54910483112894 26.389467120454945 0
248 1 17 152.5792634490639 26.295259247588767 0
249 1 6 159.61373948662884 26.205908683592494 0
250 1 8 166.35342329237463 26.196501221061926 0
251 1 12 0.05566550576939316 30.327438352150082 0
252 1 8 6.941520928446098 30.12978946382474 0
253 1 6 13.982218111281249 30.088251996339956 0
254 1 17 20.88267877360742 30.242918317885437 0
255 1 17 28.070222770035446 30.301040137455967 0
256 1 17 34.77703710725456 30.19930774274712 0
257 1 17 41.751430107846936 30.27634081251851 0
258 1 17 48.53134631784016 30.30113420878417 0
259 1 6 55.68391010036109 30.219716057863657 0
260 1 8 62.738055319691654 30.023637328025092 0
261 1 12 69.60563104692254 30.335081653889404 0
262 1 13 76.5728073793301 30.3748074137258 0
263 1 11 83.35520017236223 30.359944072676132 0
264 1 11 90.42450115820654 30.01334817973513 0
265 1 13 97.22150914966004 30.109644286485697 0
266 1 12 104.1752862324165 30.338279329922386 0
267 1 8 111.11467592099879 30.353721659665958 0
268 1 6 118.00536935598998 30.14288001480397 0
269 1 17 124.71679363410361 30.150305984462847 0
270 1 17 131.8907512387008 30.385203258795364 0
271 1 17 138.95363871660194 30.306700036822424 0
272 1 17 145.78079860789342 30.161830736320077 0
273 1 17 152.74243911873663 30.364842122058594 0
274 1 6 159.58489843495258 30.230500272414716 0
275 1 8 166.65750649075594 30.00861264724956 0
276 1 16 -3.305902580034091 32.091206093109385 0
277 1 8 3.595169111285002 32.396470071566426 0
278 1 7 10.481023303201194 32.04429591617003 0
279 1 6 17.553020635917644 32.13602786918612 0
280 1 7 24.278750818513874 32.222491291351744 0
281 1 7 31.29607577394733 32.146230227020254 0
282 1 7 38.25048260204537 32.34271971510656 0
283 1 7 45.40130077061371 32.15866756226321 0
284 1 6 52.11046117221036 32.24172937953408 0
285 1 7 58.89262570994242 32.28318396433375 0
286 1 8 66.00659032515661 32.216220657346085 0
287 1 9 72.97300111676235 32.265128684749925 0
288 1 10 79.71141976892226 32.198840482602485 0
289 1 11 86.78048558251041 32.24969682606939 0
290 1 10 93.84778832687266 32.332813753760604 0
291 1 9 100.57408917482024 32.12542372472066 0
292 1 8 107.40592146782258 32.090447481669734 0
293 1 7 114.57982258724005 32.205077926261765 0
294 1 6 121.53921233182646 32.11245762162195 0
295 1 7 128.31527756391196 32.05801048103408 0
296 1 7 135.13977848975392 32.29972479772706 0
297 1 7 142.2680690803611 32.39656479037293 0
298 1 7 149.011661397999 32.256796467398175 0
299 1 6 156.01845953274898 32.31392464054132 0
300 1 7 162.84095466286755 32.13249128698695 0
301 1 4 -3.2225072691554812 36.275283226403154 0
302 1 8 3.6944093850106423 36.005826424906886 0
303 1 6 10.450614169594013 36.13652777851526 0
304 1 7 17.424091880284504 36.30595715671597 0
305 1 8 24.496044595409227 36.31278325933215 0
306 1 8 31.237132985211307 36.040060813726555 0
307 1 8 38.48631599559027 36.14650201769672 0
308 1 8 45.100735037616595 36.033878722014144 0
309 1 7 52.21174595105169 36.07335155999868 0
310 1 6 59.209405691818894 36.03096780128215 0
311 1 8 66.19981071370847 36.14899072178218 0
312 1 12 72.97013899881955 36.12187733351784 0
313 1 13 79.94449955358029 36.21929204697382 0
314 1 10 86.85600918490033 36.27692456891818 0
315 1 13 93.76427670342497 36.18329799101596 0
316 1 12 100.80327432780874 36.32077893216355 0
317 1 8 107.54631431895272 36.0247662015459 0
318 1 6 114.5073332036233 36.041178344186164 0
319 1 7 121.3768265680133 36.17918007569432 0
320 1 8 128.38251774907874 36.30043030928302 0
321 1 8 135.40627721675497 36.16793144960385 0
322 1 8 142.1897032299184 36.170452119193804 0
323 1 8 149.28943954683447 36.114908407234765 0
324 1 7 155.9943256387743 36.05466955276381 0
325 1 6 163.18174491345147 36.241312386152316 0
326 1 8 0.17355867893692262 38.05576661902804 0
327 1 7 7.27366745691023 38.2269346736771 0
328 1 6 14.071469368841868 38.33403301943638 0
329 1 8 21.00814996240339 38.01754819467561 0
330 1 8 27.936816294471775 38.31455637082855 0
331 1 8 34.93264877730491 38.22122848771427 0
332 1 8 41.83738520526449 38.3195240051331 0
333 1 8 48.82442849984836 38.18462507625048 0
334 1 6 55.55137484528677 38.336061931523396 0
335 1 7 62.70466521650568 38.36545395819394 0
336 1 8 69.61528995834645 38.02593680638321 0
337 1 9 76.25651475427419 38.14429425929169 0
338 1 14 83.22609148682875 38.24429875769254 0
339 1 14 90.23032339187137 38.0344921801333 0
340 1 9 97.17912588204831 38.14711283006513 0
341 1 8 104.2942769431501 38.318180465222206 0
342 1 7 110.93437240567337 38.001645360469915 0
343 1 6 117.84593239395909 38.19543586612085 0
344 1 8 124.88791642587641 38.35403343533308 0
345 1 8 131.8607403183043 38.157502121972385 0
346 1 8 138.94449438131238 38.23602786072157 0
347 1 8 145.54150229225723 38.30298571790908 0
348 1 8 152.69623772096244 38.13123709525984 0
349 1 6 159.42157742658856 38.2560264637002 0
350 1 7 166.42120512663777 38.0573728300391 0
351 1 8 0.37668180724467154 42.153706874043515 0
352 1 6 6.97731317750797 42.34765228294221 0
353 1 7 14.21692575777079 42.26002161383995 0
354 1 8 21.145154084800804 42.22163998851448 0
355 1 12 27.91455399307743 42.24271094614166 0
356 1 12 34.99424730952552 42.24842647082212 0
357 1 12 41.85654699562497 42.018555114963284 0
358 1 8 48.6000153249594 42.260938229023886 0
359 1 7 55.57580376782595 42.31040875370703 0
360 1 6 62.647671564273594 42.21252328222327 0
361 1 8 69.30299607695974 42.030556292997666 0
362 1 12 76.36788336909264 42.08067507770184 0
363 1 15 83.3601793664737 42.20369018515873 0
364 1 15 90.28755465291756 42.00689605339812 0
365 1 12 97.11689358220599 42.27753223977244 0
366 1 8 104.08003999973594 42.04467912115654 0
367 1 6 111.11250334464398 42.13771131587893 0
368 1 7 118.06129641807482 42.154125480565924 0
369 1 8 124.8065282152791 42.178052949223066 0
370 1 12 131.90509600651765 42.2843211793496 0
371 1 12 138.89534307965963 42.232695548315 0
372 1 12 145.67096703954508 42.151095855326915 0
373 1 8 152.78198166898116 42.183752278826766 0
374 1 7 159.44913238922547 42.38302937047441 0
375 1 6 166.34544528351174 42.19730459440107 0
376 1 3 -3.0880345282683295 44.191774414406005 0
377 1 7 3.707643983301671 44.02886742832974 0
378 1 6 10.71155996651823 44.27167260632732 0
379 1 8 17.68869588524037 44.23744882798664 0
380 1 12 24.374838048099264 44.31863452382436 0
381 1 15 31.463618790480854 44.13695340962733 0
382 1 15 38.264780435965264 44.00606134278463 0
383 1 12 45.20746370081639 44.303427614595655 0
384 1 8 52.32112681826678 44.24694656129913 0
385 1 6 59.12137307996092 44.11771858223498 0
386 1 7 66.00162714962809 44.30548523228165 0
387 1 8 73.1261884903343 44.05394860808293 0
388 1 12 79.8684985321211 44.00698635194402 0
389 1 12 86.996327184764 44.09304612920367 0
390 1 12 93.67742807891253 44.14408426159017 0
391 1 8 100.6589379629854 44.095448414422826 0
392 1 7 107.58890992399071 44.30898407441041 0
393 1 6 114.581179830436 44.04888924892662 0
394 1 8 121.27890085665852 44.285005949655236 0
395 1 12 128.26454975317952 44.02237942060589 0
396 1 15 135.15530353865918 44.036422075965895 0
397 1 15 142.35059757774854 44.30450571950882 0
398 1 12 149.31921827774607 44.150403709988616 0
399 1 8 156.06090883160718 44.152181748736304 0
400 1 6 162.81933304455407 44.17635611420238 0
401 1 3 -3.3065383083402438 48.19101357848585 0
402 1 6 3.705871409786937 48.01528246105787 0
403 1 7 10.627622200840877 48.244373309919425 0
404 1 8 17.58772946498718 48.353702262328184 0
405 1 9 24.305484593659077 48.1374048395745 0
406 1 14 31.417642502501433 48.17274116775886 0
407 1 14 38.25187370389808 48.20809012938708 0
408 1 9 45.232596041142735 48.14761229963528 0
409 1 8 52.32227022347333 48.09856947168729 0
410 1 7 58.987224283577426 48.14681749279978 0
411 1 6 66.10783206225825 48.213203385348116 0
412 1 8 72.91418358929972 48.17298042275204 0
413 1 8 79.75295359795149 48.3149739610617 0
414 1 8 86.97076492873532 48.13213433727489 0
415 1 8 93.89770544251493 48.21377927701356 0
416 1 8 100.50448391719773 48.17396277334025 0
417 1 6 107.44692293421718 48.16338439606577 0
418 1 7 114.35778704108222 48.394035259217986 0
419 1 8 121.57796783004875 48.04545160938826 0
420 1 9 128.2035829485927 48.208283813832 0
421 1 14 135.4414715650344 48.272977314010475 0
422 1 14 142.04835177876706 48.24367848747908 0
423 1 9 149.33860510723642 48.068769470993395 0
424 1 8 156.12655812946576 48.287225602567965 0
425 1 7 162.86333867481085 48.32552667445349 0
426 1 7 0.26783197371786094 50.07564955257505 0
427 1 6 7.12944973208976 50.00861692767672 0
428 1 8 14.142979557680757 50.039377801878096 0
429 1 12 21.103167641251314 50.164876492819374 0
430 1 13 27.732243831052674 50.12339157345511 0
431 1 10 34.956059255948105 50.394656815238385 0
432 1 13 41.95451428319316 50.08988868022075 0
433 1 12 48.56220109799854 50.21694490925909 0
434 1 8 55.757566723647024 50.0485502670362 0
435 1 6 62.5385463724648 50.185290415245845 0
436 1 7 69.42363726276798 50.001511451317796 0
437 1 8 76.47515807335469 50.11825921867846 0
438 1 8 83.18889735107913 50.16976593229574 0
439 1 8 90.24446029900176 50.03692812815906 0
440 1 8 97.37013892449941 50.172192419221 0
441 1 7 104.25819090417765 50.0926095685723 0
442 1 6 111.14698678271525 50.2455531716472 0
443 1 8 118.00486742703617 50.338511056720975 0
444 1 12 124.73502892540456 50.29724157878408 0
445 1 13 131.9724137220216 50.16217223832076 0
446 1 10 138.7257949058412 50.107499499958585 0
447 1 13 145.65580028621545 50.25095451193696 0
448 1 12 152.5773179681664 50.11455580906088 0
449 1 8 159.36625082193564 50.23498688587737 0
450 1 6 166.59549495857016 50.127661490645316 0
451 1 6 0.20466002807726752 54.19191057745628 0
452 1 7 7.237806753436594 54.380343180106934 0
453 1 8 14.09617089525604 54.31688780293392 0
454 1 9 20.98362140266027 54.1809981078792 0
455 1 10 28.053951689562854 54.269633002776736 0
456 1 11 34.89796709863694 54.05039236917441 0
457 1 10 41.658194857264235 54.280446430972844 0
458 1 9 48.566233403840634 54.176162799014854 0
459 1 8 55.53714140320724 54.36833615153589 0
460 1 7 62.506845700583014 54.33215230086374 0
461 1 6 69.6093139273886 54.30777255273863 0
462 1 7 76.26150868954613 54.072430653710384 0
463 1 7 83.38857130580463 54.300549072511984 0
464 1 7 90.17732627124754 54.05415566237472 0
465 1 7 97.05183317990459 54.35022871159531 0
466 1 6 103.93446895867659 54.065065920626175 0
467 1 7 110.8934348229447 54.36633878451938 0
468 1 8 117.96704080216244 54.38723985729712 0
469 1 9 124.81708064029769 54.123348938810786 0
470 1 10 131.74148396867952 54.12030091605402 0
471 1 11 138.77862149823684 54.07617420999769 0
472 1 10 145.5181268696878 54.28495881083963 0
473 1 9 152.73019539292082 54.259273514624745 0
474 1 8 159.52015125401488 54.06404063596877 0
475 1 7 166.6188332975049 54.15638262662149 0
476 1 2 -3.1166082867968465 56.21395992630163 0
477 1 6 3.6007449819525443 56.361159228512626 0
478 1 8 10.66999558533723 56.33889691135146 0
479 1 12 17.576791819340055 56.219028591121685 0
480 1 13 24.25282859324287 56.015605453435064 0
481 1 11 31.56294560217502 56.128910076559634 0
482 1 11 38.464052138937234 56.239619490045406 0
483 1 13 45.30815210929912 56.3798212383435 0
484 1 12 52.03005365227057 56.040150831396964 0
485 1 8 59.24796110117411 56.193742166015824 0
486 1 6 66.07903383832112 56.14402407074196 0
487 1 17 72.9537454861863 56.27872844018195 0
488 1 17 79.80708661220126 56.231235419602356 0
489 1 17 86.79821639151389 56.08135786888806 0
490 1 17 93.74275828024754 56.29040174392198 0
491 1 17 100.74081930732113 56.126754374508714 0
492 1 6 107.39651264530413 56.22646002270036 0
493 1 8 114.43334680680637 56.12983200465749 0
494 1 12 121.33763685535047 56.104090129244504 0
495 1 13 128.21098620289712 56.08631943594582 0
496 1 11 135.29323412279194 56.25234755889782 0
497 1 11 142.21934666136036 56.329930212102425 0
498 1 13 149.128347160715 56.31655588893025 0
499 1 12 156.22476591609976 56.25207378409586 0
500 1 8 162.87613227883256 56.30970897447152 0
501 1 2 -3.2223555137307476 60.32849598529987 0
502 1 6 3.863812115524649 60.14132405981299 0
503 1 8 10.664467419454057 60.06567413181523 0
504 1 12 17.69259744559437 60.22483433981432 0
505 1 13 24.638740431045864 60.31972609776459 0
506 1 11 31.379731795782053 60.14628204171707 0
507 1 11 38.29941354081966 60.29520321436091 0
508 1 13 45.20822471757611 60.15948317797991 0
509 1 12 52.05989966829382 60.09392787769444 0
510 1 8 59.12850895417697 60.33840642172047 0
511 1 6 65.95124857437402 60.13612231552886 0
512 1 17 72.8191514396551 60.24904738909003 0
513 1 17 80.03953336577827 60.377761772063195 0
514 1 17 86.93121608799386 60.14634656410062 0
515 1 17 93.82732074354028 60.39744608379584 0
516 1 17 100.85762829011465 60.30092410192781 0
517 1 6 107.52726496511195 60.2049670828903 0
518 1 8 114.41132557994897 60.081526744109965 0
519 1 12 121.33519927350233 60.02026086417728 0
520 1 13 128.31044125699228 60.31479088008248 0
521 1 11 135.40409687500912 60.3719826033648 0
522 1 11 142.09075551144386 60.017909791892976 0
523 1 13 149.1087575761561 60.06024235255605 0
524 1 12 156.26587402090766 60.19426700620849 0
525 1 8 163.08394934979853 60.09580210523869 0
526 1 6 0.11040638292582892 62.031140200079 0
527 1 7 7.014906753521204 62.25459278678043 0
528 1 8 13.999202533979743 62.076816284110066 0
529 1 9 21.056217616237564 62.05012654633979 0
530 1 10 28.075944305821352 62.32811939457291 0
531 1 11 34.90128151906517 62.12090253128253 0
532 1 10 41.88961809924217 62.04759887150206 0
533 1 9 48.66555705286426 62.20251931361586 0
534 1 8 55.468049531972746 62.17331832701228 0
535 1 7 62.61992737920109 62.35145293867744 0
536 1 6 69.64971378142704 62.39501041340484 0
537 1 7 76.40774490993614 62.076952659601226 0
538 1 7 83.35239570915331 62.030361937565125 0
539 1 7 90.13590175681807 62.20615459934475 0
540 1 7 97.13459423341591 62.25035212246503 0
541 1 6 104.31160954229394 62.30501385654175 0
542 1 7 111.17428562542052 62.258452625691284 0
543 1 8 118.0763592369077 62.13787813514441 0
544 1 9 124.85141222789439 62.2846298669489 0
545 1 10 131.70157159224453 62.37790310739165 0
546 1 11 138.64715484391056 62.281988802296176 0
547 1 10 145.71086480489626 62.306115196448566 0
548 1 9 152.71075747893062 62.31125427458198 0
549 1 8 159.50305084016185 62.1792451136945 0
550 1 7 166.65284615800087 62.1901472195018 0
551 1 7 0.15885446458026908 66.16503096016656 0
552 1 6 7.217793035387595 66.15966194971459 0
553 1 8 14.066387298405136 66.15003183164536 0
554 1 12 20.979890634681357 66.36490641393281 0
555 1 13 28.091082619245018 66.10995885756111 0
556 1 10 34.96591050971078 66.13199386162395 0
557 1 13 41.961780542898516 66.08694618374348 0
558 1 12 48.89304177167135 66.17149528035976 0
559 1 8 55.593547707950094 66.13358902821544 0
560 1 6 62.427972879701066 66.16335856291626 0
561 1 7 69.4792976684846 66.2312499229189 0
562 1 8 76.26141802231781 66.20648583527898 0
563 1 8 83.530650285247 66.22478459838747 0
564 1 8 90.45817243047465 66.15097348757348 0
565 1 8 97.0535597705745 66.28689793611521 0
566 1 7 104.11007454361224 66.20965707209037 0
567 1 6 111.07582364415002 66.057823369796 0
568 1 8 117.93096259896721 66.04268436118787 0
569 1 12 125.0824234945371 66.39876676754113 0
570 1 13 131.93003561058435 66.37365409361317 0
571 1 10 138.74805667680306 66.30934249273972 0
572 1 13 145.72168655860912 66.104584738842 0