
14309 atoms
14896 bonds
16659 angles
41 atom types
13 bond types
33 angle types

-5.680607966083864 171.52447279080386 xlo xhi
-2.0 148.0 ylo yhi
-4 4 zlo zhi


Masses

1 0.00019611353941755753
2 0.000318684501553531
3 0.0005883406182526725
4 0.0006005977144662699
5 0.00033094159776712835
6 0.000710911580388646
7 0.000637369003107062
8 0.0005025409447574911
9 0.0001103138659223761
10 0.00023288482805834955
11 0.00039222707883511507
12 0.0005147980409710885
13 0.0006618831955342566
14 0.0010050818895149822
15 0.000563826425825478
16 0.0008334825425246194
17 0.0009560535046605929
18 0.0004167412712623097
19 0.0009070251198062034
20 0.0010541102743693719
21 0.0006863973879614513
22 0.00017159934699036283
23 0.0009070251198062035
24 0.0008334825425246195
25 0.00046576965611669916
26 0.000392227078835115
27 0.0004657696561166991
28 0.00036771288640792034
29 0.00039222707883511507
30 0.0002451419242719469
31 0.0005393122333982831
32 0.000637369003107062
33 0.0007354257728158407
34 0.00046576965611669916
35 0.00019611353941755753
36 0.0006863973879614513
37 0.00036771288640792034
38 9.805676970877877e-05
39 0.00012257096213597345
40 0.00014708515456316815
41 0.000318684501553531

Pair Coeffs

1 0.40509979849834776 0.44544935907016964 0.5
2 0.40509979849834776 0.44544935907016964 0.5
3 0.40509979849834776 0.44544935907016964 0.5
4 0.40509979849834776 0.44544935907016964 0.5
5 0.40509979849834776 0.44544935907016964 0.5
6 0.40509979849834776 0.44544935907016964 0.5
7 0.40509979849834776 0.44544935907016964 0.5
8 0.40509979849834776 0.44544935907016964 0.5
9 0.40509979849834776 0.44544935907016964 0.5
10 0.40509979849834776 0.44544935907016964 0.5
11 0.40509979849834776 0.44544935907016964 0.5
12 0.40509979849834776 0.44544935907016964 0.5
13 0.40509979849834776 0.44544935907016964 0.5
14 0.40509979849834776 0.44544935907016964 0.5
15 0.40509979849834776 0.44544935907016964 0.5
16 0.40509979849834776 0.44544935907016964 0.5
17 0.40509979849834776 0.44544935907016964 0.5
18 0.40509979849834776 0.44544935907016964 0.5
19 0.40509979849834776 0.44544935907016964 0.5
20 0.40509979849834776 0.44544935907016964 0.5
21 0.40509979849834776 0.44544935907016964 0.5
22 0.40509979849834776 0.44544935907016964 0.5
23 0.40509979849834776 0.44544935907016964 0.5
24 0.40509979849834776 0.44544935907016964 0.5
25 0.40509979849834776 0.44544935907016964 0.5
26 0.40509979849834776 0.44544935907016964 0.5
27 0.40509979849834776 0.44544935907016964 0.5
28 0.40509979849834776 0.44544935907016964 0.5
29 0.40509979849834776 0.44544935907016964 0.5
30 0.40509979849834776 0.44544935907016964 0.5
31 0.40509979849834776 0.44544935907016964 0.5
32 0.40509979849834776 0.44544935907016964 0.5
33 0.40509979849834776 0.44544935907016964 0.5
34 0.40509979849834776 0.44544935907016964 0.5
35 0.40509979849834776 0.44544935907016964 0.5
36 0.40509979849834776 0.44544935907016964 0.5
37 0.40509979849834776 0.44544935907016964 0.5
38 0.40509979849834776 0.44544935907016964 0.5
39 0.40509979849834776 0.44544935907016964 0.5
40 0.40509979849834776 0.44544935907016964 0.5
41 0.40509979849834776 0.44544935907016964 0.5

Bond Coeffs

1 78.44541576702301 0.5
2 49.02838485438938 0.5
3 107.86244667965663 0.5
4 127.47380062141238 0.5
5 147.08515456316812 0.5
6 93.15393122333982 0.5
7 39.222707883511504 0.5
8 137.27947759229028 0.5
9 73.54257728158406 0.5
10 19.611353941755752 0.5
11 24.51419242719469 0.5
12 29.417030912633628 0.5
13 63.73690031070619 0.5

Angle Coeffs

1 4.022735345217888 180
2 0.9821131213910858 180
3 10.457540516572282 180
4 17.26162022156972 180
5 26.517054277559314 180
6 6.736313899621458 180
7 0.502841918152236 180
8 21.559347240777118 180
9 3.3146317846949143 180
10 0.0628552397690295 180
11 0.12276414017388572 180
12 0.21213643422047457 180
13 2.157702527696215 180
14 1.578781532660081 120
15 13.024499158111853 120
16 10.743405020217926 120
17 0.9358276262667716 120
18 23.782577851813297 120
19 17.26162022156972 120
20 5.5613544220130615 120
21 0.0831418515463353 120
22 0.38629402899492987 120
23 4.022735345217888 120
24 5.810375197487801 120
25 20.91097209181544 120
26 6.736313899621462 120
27 19.172590928147066 120
28 21.559347240777118 120
29 0.12337099983743789 120
30 3.3146317846949143 120
31 0.1555252450296735 120
32 0.12276414017388569 120
33 2.157702527696215 120

Atoms

1 1 1 -3.303249912202846 0.29547065600268024 0
2 1 2 3.7798395175599833 0.2995159063898445 0
3 1 3 10.455260919397052 0.28354393445633364 0
4 1 4 17.642486594932368 0.20833121308543046 0
5 1 5 24.304007605887698 0.12423523428136854 0
6 1 6 31.451517057536513 0.23187092119590602 0
7 1 7 38.26592374890117 0.06422243429526069 0
8 1 8 45.11449054864678 0.21062400854775662 0
9 1 9 52.269786158641224 0.20720177205333845 0
10 1 10 59.18153821784489 0.2843466937410889 0
11 1 10 66.11880000854435 0.33154889081330347 0
12 1 9 72.83087976079713 0.175216681757153 0
13 1 8 79.92120035055281 0.2959851390811447 0
14 1 7 86.72088540194585 0.23010789023918618 0
15 1 6 93.69775861135311 0.036069354184875425 0
16 1 5 100.49307882422153 0.3230022412046258 0
17 1 4 107.62105090345716 0.33102477070681285 0
18 1 3 114.60233776077175 0.16546881363228216 0
19 1 2 121.53559776099385 0.05324247014620651 0
20 1 11 128.53661544259333 0.3698801760931905 0
21 1 11 135.11045156036195 0.1287048216862425 0
22 1 11 142.4151432815072 0.04946767659098561 0
23 1 11 149.33830531849858 0.30541232131610907 0
24 1 11 156.0263348911571 0.07265926891111839 0
25 1 11 163.0125587366857 0.27157816608835894 0
26 1 12 0.38117876983120064 2.150617114632199 0
27 1 13 7.2033596450273985 2.3148741897797303 0
28 1 14 13.97483362233976 2.268329219129405 0
29 1 15 20.80088849603535 2.246132926538155 0
30 1 16 28.052301234388548 2.2095205669421056 0
31 1 14 34.6484805041659 2.267945014458753 0
32 1 17 41.649796112052336 2.2451198883693437 0
33 1 18 48.60210357107111 2.174275701707688 0
34 1 1 55.66261995139859 2.003238692881437 0
35 1 11 62.555622963141005 2.134424212322529 0
36 1 1 69.44331834773845 2.2429750738019525 0
37 1 18 76.54065904745151 2.38601840693726 0
38 1 17 83.51141911968696 2.3097040216042783 0
39 1 14 90.17050206443173 2.126534106435921 0
40 1 16 97.08845163778228 2.2402894863472818 0
41 1 15 103.93745365866646 2.024943935774735 0
42 1 14 110.93667979826996 2.1122147111279146 0
43 1 13 117.95066445975463 2.0374377438779505 0
44 1 12 124.73971158446697 2.3575692462238043 0
45 1 13 131.72363921191203 2.142388266728477 0
46 1 13 138.90210215520068 2.1065057652355805 0
47 1 13 145.59704647135763 2.3012201727385997 0
48 1 13 152.56143446501292 2.389830328984432 0
49 1 13 159.49205711328142 2.2045386303733423 0
50 1 13 166.4170597259478 2.1556485454051226 0
51 1 13 0.2828519983014087 6.0670106870818215 0
52 1 12 7.111317346367728 6.370952693247063 0
53 1 19 13.888791225623233 6.009559267801379 0
54 1 16 20.925881031008903 6.203115443821524 0
55 1 15 27.85913916153939 6.206661168954093 0
56 1 20 34.878145900770164 6.026172667578565 0
57 1 17 41.60959680388231 6.246965332419993 0
58 1 21 48.702487826540604 6.126631657678629 0
59 1 22 55.6461594599813 6.037177402775852 0
60 1 1 62.513307927942634 6.139019930620292 0
61 1 22 69.33688400304385 6.320312349795499 0
62 1 21 76.24488630460641 6.1114159560905215 0
63 1 17 83.37600045182387 6.215711301035042 0
64 1 20 90.24266743013871 6.205331455105699 0
65 1 15 97.07474152610408 6.362694270961044 0
66 1 16 104.28552556429779 6.219680550727955 0
67 1 19 110.85293957010161 6.315447369506019 0
68 1 12 117.94685565849906 6.398646260742833 0
69 1 13 125.00316991521106 6.3907593283653945 0
70 1 23 132.02799897634333 6.333311758944167 0
71 1 23 138.66940299200425 6.300328600934261 0
72 1 23 145.5963745160963 6.324004572213925 0
73 1 23 152.50437998279722 6.008314624395001 0
74 1 23 159.39938713239113 6.395835185862505 0
75 1 23 166.31746424704215 6.171255435186223 0
76 1 3 -3.4559133713251593 8.347174275257899 0
77 1 12 3.833314296708625 8.15651140830985 0
78 1 13 10.704655011706794 8.074906707153005 0
79 1 14 17.362046942381482 8.126460118824705 0
80 1 15 24.455942919282446 8.377077518372158 0
81 1 16 31.2622278993574 8.247874347103368 0
82 1 14 38.32266320617496 8.39472041741452 0
83 1 17 45.196353374126424 8.160597083844085 0
84 1 18 52.355311135653885 8.115137615610193 0
85 1 22 59.20770202292501 8.291068428137065 0
86 1 22 66.07090563737255 8.007286407920356 0
87 1 18 72.90026123400233 8.30568636273303 0
88 1 17 79.81597511797585 8.115855512744474 0
89 1 14 86.85020977509997 8.13344978598204 0
90 1 16 93.59212026483239 8.245015507987553 0
91 1 15 100.57518400022717 8.046356922776708 0
92 1 14 107.38827371828326 8.014280329272175 0
93 1 13 114.60370652815828 8.080138992041892 0
94 1 12 121.40130056248123 8.284494073404613 0
95 1 19 128.47892287022518 8.38711164708161 0
96 1 14 135.3148869966696 8.00835316985288 0
97 1 14 142.12875379638595 8.053487125457151 0
98 1 14 148.97926818145766 8.151112987475152 0
99 1 14 156.10138485412014 8.21323360967681 0
100 1 14 162.8991915289687 8.291155536243723 0
101 1 7 -3.364320697777194 12.375782692550208 0
102 1 13 3.7039738892213756 12.104804812398703 0
103 1 12 10.767378153006495 12.055498846305056 0
104 1 19 17.362756188231156 12.014842106339076 0
105 1 16 24.382627242501258 12.341122576101098 0
106 1 15 31.217602251811588 12.150234210504939 0
107 1 20 38.43167438400088 12.11293628380755 0
108 1 17 45.27154340399567 12.371704991702453 0
109 1 21 52.27607342105271 12.134731652581548 0
110 1 18 59.27161586687565 12.24579142904271 0
111 1 18 66.05223916276225 12.330417096264082 0
112 1 21 73.03930108819165 12.122092387187873 0
113 1 17 79.69809354424044 12.053723908607893 0
114 1 20 86.9904451862382 12.154182256021707 0
115 1 15 93.92764467572742 12.282766415981538 0
116 1 16 100.46330225459353 12.264859206581582 0
117 1 19 107.6127065038345 12.090397712724789 0
118 1 12 114.37678429630724 12.140515545142133 0
119 1 13 121.27715682601715 12.336491238563099 0
120 1 14 128.19189128564358 12.064489601474277 0
121 1 24 135.14051496431983 12.257040328120855 0
122 1 24 142.1551162714188 12.130326904479594 0
123 1 24 148.99897826545748 12.261672796210854 0
124 1 24 156.19869968062594 12.229398632613226 0
125 1 24 162.8882230465711 12.161583184275434 0
126 1 19 0.1408922880319051 14.085044320653642 0
127 1 12 6.928522775350091 14.121727543353332 0
128 1 13 14.239142911715525 14.100333054122673 0
129 1 14 20.889657048654136 14.000383757212457 0
130 1 15 27.811858940159805 14.034909490912991 0
131 1 16 34.849874247645 14.213530440186677 0
132 1 14 41.584830418577525 14.290185139101583 0
133 1 17 48.75272525085751 14.110427808757123 0
134 1 21 55.74162853898557 14.180550413740018 0
135 1 21 62.53716712918448 14.081602926043583 0
136 1 21 69.41987573496087 14.206477345894436 0
137 1 17 76.29765160072775 14.025730753115702 0
138 1 14 83.4496969674593 14.036086242907919 0
139 1 16 90.33384362102203 14.353383553850163 0
140 1 15 97.15111933737549 14.36166004298819 0
141 1 14 104.28303394700727 14.03279826192459 0
142 1 13 111.16510295936133 14.395131609784462 0
143 1 12 117.85691391010232 14.151869401009444 0
144 1 19 125.05860264756187 14.149946698072673 0
145 1 16 131.767633641589 14.308220877118288 0
146 1 15 138.82367549192506 14.005009082997258 0
147 1 15 145.52294468994745 14.334418829789955 0
148 1 15 152.53936354241182 14.261879443457659 0
149 1 15 159.72943054632373 14.007949138119196 0
150 1 15 166.61106184475506 14.064316917170148 0
151 1 14 0.14869961958681174 18.192654306919728 0
152 1 13 7.319554850791503 18.088125080759088 0
153 1 12 14.136124837113337 18.301911958081902 0
154 1 19 20.824520983691023 18.292144571208524 0
155 1 16 28.04564952424121 18.34642555154369 0
156 1 15 34.74443001852903 18.312315846937896 0
157 1 20 41.93954156320929 18.399712719276994 0
158 1 17 48.83632898131727 18.007475529273268 0
159 1 17 55.77543056977209 18.222669618767622 0
160 1 17 62.56727231180883 18.183978910944514 0
161 1 17 69.29491291376925 18.061813217657207 0
162 1 17 76.2273820915965 18.180609149927474 0
163 1 20 83.35050302922112 18.0572652843909 0
164 1 15 90.32262996710837 18.198538902411766 0
165 1 16 97.09872549768846 18.198413865806998 0
166 1 19 104.13499343605156 18.05583158699336 0
167 1 12 110.888540949024 18.296170074945422 0
168 1 13 118.0464630723721 18.180542150414215 0
169 1 14 124.79250750761145 18.112992993032552 0
170 1 15 131.9925785695828 18.048749266529516 0
171 1 15 138.57492831899108 18.091927468194907 0
172 1 15 145.68022854094536 18.319333668693293 0
173 1 15 152.7225126280737 18.188366996940225 0
174 1 15 159.56101660035526 18.289521747140064 0
175 1 15 166.35854143279568 18.250007955562534 0
176 1 4 -3.441235423440767 20.223565536150815 0
177 1 19 3.7177490820213617 20.38536439248417 0
178 1 12 10.520175934488524 20.096697135652505 0
179 1 13 17.491947861731095 20.030265710299435 0
180 1 14 24.28145058829774 20.143796178789685 0
181 1 15 31.560347766358216 20.172285853661204 0
182 1 16 38.20937166905791 20.341093546263497 0
183 1 14 45.295208019334 20.054082799919517 0
184 1 17 51.99107923509168 20.20825168239034 0
185 1 17 59.14736245516599 20.27961130120882 0
186 1 17 66.06258012835164 20.25084052970227 0
187 1 17 72.93721458094718 20.050551175573624 0
188 1 14 79.91476535595713 20.184900728796848 0
189 1 16 86.62204893948295 20.276252883039582 0
190 1 15 93.6769901850817 20.373694288084447 0
191 1 14 100.84435826323298 20.17454042288746 0
192 1 13 107.68655432470989 20.282902100699637 0
193 1 12 114.49095933481534 20.327436853034875 0
194 1 19 121.61446870540779 20.181337615805546 0
195 1 16 128.54000854871234 20.098031629915763 0
196 1 15 135.21481748713828 20.007555272495303 0
197 1 24 142.19833249722623 20.2890529861457 0
198 1 24 149.00120780698273 20.0955113387778 0
199 1 24 156.2045448477927 20.168269656015756 0
200 1 24 163.16338641068936 20.38908231535679 0
201 1 25 -3.126656168648381 24.324066510177268 0
202 1 14 3.7830907160723504 24.296293705268397 0
203 1 13 10.465391503512187 24.04840496191349 0
204 1 12 17.56835195232288 24.05370204401552 0
205 1 19 24.381602227253527 24.000997891458383 0
206 1 16 31.405494570891275 24.18300051310583 0
207 1 15 38.441783612377066 24.363161131264363 0
208 1 20 45.12413597283509 24.3121615176076 0
209 1 14 52.335158327920304 24.374287533571753 0
210 1 14 59.23340850362207 24.193220928838848 0
211 1 14 65.88910609143483 24.24656951091478 0
212 1 14 73.01994816694015 24.264521987258405 0
213 1 20 79.99371265468179 24.377655552850612 0
214 1 15 86.6549656540752 24.14164454194411 0
215 1 16 93.83886397005288 24.37614710819061 0
216 1 19 100.494572678775 24.339998409007556 0
217 1 12 107.60509871548676 24.11489488559586 0
218 1 13 114.69881422228576 24.09149064078012 0
219 1 14 121.40768443121576 24.0539516164797 0
220 1 15 128.529061658766 24.001039812876027 0
221 1 16 135.1373710137357 24.216611165713626 0
222 1 20 142.1237437124653 24.193247227868145 0
223 1 20 148.9841868007388 24.202542683322466 0
224 1 20 156.0953957891058 24.239805199868446 0
225 1 20 162.8299579314796 24.128705033670332 0
226 1 16 0.19180996150338153 26.10188733587672 0
227 1 19 6.931498178075918 26.11204747387693 0
228 1 12 14.026289671470822 26.253205974931614 0
229 1 13 20.796775888295958 26.134888666553323 0
230 1 14 27.967105087905086 26.019292355846684 0
231 1 15 34.84429855091738 26.384820062321563 0
232 1 16 41.87306927051198 26.263911077542602 0
233 1 20 48.60485900527852 26.12150776861152 0
234 1 20 55.63565290261072 26.04031267522278 0
235 1 20 62.635557837856425 26.370060697590038 0
236 1 20 69.64990883617334 26.12720580968953 0
237 1 20 76.58909128400825 26.10096048547003 0
238 1 16 83.38789289032691 26.28916843989075 0
239 1 15 90.38008817437597 26.209439359211075 0
240 1 14 97.39450824120364 26.35914593553101 0
241 1 13 103.96475276127435 26.253223224980527 0
242 1 12 110.91686796447536 26.25948856594575 0
243 1 19 117.9288253603015 26.049707017384794 0
244 1 16 124.71379226831397 26.23178637475537 0
245 1 15 131.93444477846643 26.153754830124303 0
246 1 20 138.75320377711725 26.382118797762452 0
247 1 14 145.78106407615107 26.196816294644805 0
248 1 14 152.7018638497278 26.229312560290897 0
249 1 14 159.6841878256127 26.34920716920094 0
250 1 14 166.60769183855044 26.179653436552005 0
251 1 15 0.310311839495156 30.189033675913613 0
252 1 14 7.0872571064606955 30.000497667943158 0
253 1 13 13.897688929132627 30.0212711769892 0
254 1 12 20.898156232224544 30.318684321131087 0
255 1 19 28.109085565577654 30.03332458209831 0
256 1 16 34.864597124013045 30.285919872153222 0
257 1 15 41.740251332724604 30.116239382490335 0
258 1 24 48.730425133491586 30.34023262834501 0
259 1 24 55.57572396394797 30.01900068597362 0
260 1 24 62.48545915289867 30.275393486267756 0
261 1 24 69.56564309863991 30.28577295549067 0
262 1 24 76.26003494605665 30.177836926398705 0
263 1 15 83.45104334041942 30.009036851555113 0
264 1 16 90.17785246794456 30.125408493219613 0
265 1 19 97.14502449078842 30.353992066472497 0
266 1 12 104.10062958753775 30.071542970918898 0
267 1 13 111.20372534766591 30.288693009824705 0
268 1 14 118.0513668637037 30.2448526029284 0
269 1 15 124.80927906245721 30.318300585207307 0
270 1 16 131.88715281472003 30.336701209941822 0
271 1 14 138.88470925121004 30.13071953684156 0
272 1 17 145.57085837281406 30.018533300688368 0
273 1 17 152.77817399376184 30.22098495223124 0
274 1 17 159.4579547440299 30.194691702596323 0
275 1 17 166.56423141333863 30.36746409601439 0
276 1 5 -3.124654419256642 32.25611799164457 0
277 1 16 3.8584640393970746 32.011574288790825 0
278 1 19 10.756942086052309 32.38357640420683 0
279 1 12 17.420906418952697 32.26634091306011 0
280 1 13 24.351667359492936 32.0168280356772 0
281 1 14 31.201885944666316 32.31589450372179 0
282 1 15 38.12802596338107 32.33156018529149 0
283 1 15 45.207552870457924 32.01852854154332 0
284 1 15 52.055999312867165 32.27526178146239 0
285 1 15 59.265140581666664 32.23616084052216 0
286 1 15 66.1249677511961 32.079528486049206 0
287 1 15 72.88716623064546 32.306787997876455 0
288 1 15 79.7617826801768 32.16638562930489 0
289 1 15 86.77067189262836 32.39851418113883 0
290 1 14 93.65513500915687 32.08194221841155 0
291 1 13 100.8547901689259 32.16269091799662 0
292 1 12 107.72860238433692 32.12303393502626 0
293 1 19 114.41077216694053 32.25587008695113 0
294 1 16 121.37543762461804 32.10233898911758 0
295 1 15 128.18468365397285 32.27542418980254 0
296 1 20 135.43176484908705 32.28893190094132 0
297 1 17 142.1698933024224 32.12091721810694 0
298 1 17 149.0320720950688 32.37279427393148 0
299 1 17 156.22283005578018 32.03419501331747 0
300 1 17 162.84470185857546 32.24909650682407 0
301 1 25 -3.06507432819774 36.316188628239345 0
302 1 15 3.4815143860275977 36.27645244689823 0
303 1 14 10.729585259783695 36.074403069955125 0
304 1 13 17.6039173006606 36.2639426382007 0
305 1 12 24.491260930827366 36.3045476421902 0
306 1 19 31.209763867186645 36.11384081501678 0
307 1 16 38.430704388366756 36.05128354033077 0
308 1 15 45.165087740019835 36.2481238506314 0
309 1 15 52.22419831986333 36.013898639099814 0
310 1 15 59.13973070757013 36.216471229452196 0
311 1 15 65.86409237941841 36.309088294091026 0
312 1 15 72.92255860577224 36.22027318677349 0
313 1 15 79.97845705109174 36.09079586498163 0
314 1 16 86.60773818852886 36.25876672018202 0
315 1 19 93.69374108607495 36.0476580414174 0
316 1 12 100.78929806252395 36.36474744271172 0
317 1 13 107.75816585666776 36.27671772024692 0
318 1 14 114.56084607368804 36.28176470360777 0
319 1 15 121.5063542815437 36.30514794321171 0
320 1 16 128.50173962831252 36.195812318394 0
321 1 14 135.4086950844655 36.05634021080457 0
322 1 17 142.21090074144146 36.07229148037601 0
323 1 21 149.12379356130444 36.014275843552646 0
324 1 21 156.08213725197223 36.2602459234003 0
325 1 21 162.92372057005386 36.390720301484 0
326 1 15 0.05523216994581479 38.39422471525431 0
327 1 16 7.194575150071432 38.0554447211748 0
328 1 19 14.16340055344193 38.05496265395949 0
329 1 12 20.858963454199568 38.29976234923874 0
330 1 13 27.97451713982578 38.0542814633455 0
331 1 14 34.69801658599608 38.29393837110554 0
332 1 24 41.66509305613763 38.28346191044298 0
333 1 24 48.549353561761706 38.010577521826846 0
334 1 24 55.77507513377166 38.38010592793088 0
335 1 24 62.470362203775935 38.26236787450113 0
336 1 24 69.63313000517057 38.1988709498015 0
337 1 24 76.2457138864946 38.28111835959787 0
338 1 24 83.28046116118928 38.22942864912853 0
339 1 14 90.35570257092326 38.37606202073098 0
340 1 13 97.11317774522183 38.04647040944112 0
341 1 12 104.1164229766808 38.272004305971066 0
342 1 19 111.06227882967427 38.08623510976451 0
343 1 16 117.93995645019811 38.185815302877245 0
344 1 15 124.92805004942494 38.094518788662974 0
345 1 20 131.97194211836475 38.05713486624547 0
346 1 17 138.86635798288435 38.125615530696365 0
347 1 21 145.8812454012462 38.22959965512052 0
348 1 18 152.63085387583183 38.16534984949004 0
349 1 18 159.70056075419566 38.196744124331055 0
350 1 21 166.3692755740426 38.04575208227319 0
351 1 16 0.101225432458561 42.261865779635656 0
352 1 15 7.163271274684446 42.248965847341594 0
353 1 14 13.965929502661464 42.24952972807557 0
354 1 13 20.91336801105755 42.31178895090463 0
355 1 12 27.858731704283045 42.250097017174674 0
356 1 19 34.952807891229014 42.022723538321635 0
357 1 14 41.81145024252205 42.19960349641668 0
358 1 14 48.89064742427203 42.30080155698029 0
359 1 14 55.50068179407075 42.140099638854345 0
360 1 14 62.74267395938982 42.17784349066534 0
361 1 14 69.37437845273793 42.35303504510241 0
362 1 14 76.41703377803606 42.137770588101155 0
363 1 14 83.13941640968413 42.20159242476177 0
364 1 19 90.42754719635 42.2709780283366 0
365 1 12 97.33286508464681 42.06617858831666 0
366 1 13 104.29966119275646 42.25781072450744 0
367 1 14 111.10962405849516 42.0928725368522 0
368 1 15 118.11320478714187 42.392373396622496 0
369 1 16 125.10404103524148 42.34720898248571 0
370 1 14 131.9753091344939 42.039214169334365 0
371 1 17 138.72036007553794 42.33576353493057 0
372 1 18 145.76503084236313 42.030554777788616 0
373 1 22 152.49480937411258 42.21086083991374 0
374 1 22 159.3636667995291 42.29613842568196 0
375 1 18 166.60415248711598 42.31626728988944 0
376 1 6 -3.240470973719032 44.149088750084715 0
377 1 15 3.4997295161544155 44.24211352553267 0
378 1 16 10.459154415549733 44.22337878413959 0
379 1 19 17.64780395648977 44.37734626555848 0
380 1 12 24.438593032131145 44.221860283657364 0
381 1 13 31.550968974894946 44.14770395859704 0
382 1 23 38.22451388591279 44.34811883956743 0
383 1 23 45.3146780249183 44.1487935341764 0
384 1 23 52.00197990808955 44.01457528266864 0
385 1 23 58.92728087944278 44.321131104017674 0
386 1 23 66.11923064221057 44.088522368849866 0
387 1 23 73.01609847865677 44.33289119241861 0
388 1 23 79.95844143498783 44.282472727122354 0
389 1 23 86.89654211678763 44.14403761787776 0
390 1 13 93.91741013044913 44.3048952569098 0
391 1 12 100.6471143162674 44.13195054827738 0
392 1 19 107.39512980732476 44.184288283517205 0
393 1 16 114.70564014250463 44.25736879001187 0
394 1 15 121.25130566308172 44.076293407385585 0
395 1 20 128.17282270277184 44.33547382205629 0
396 1 17 135.1749710073123 44.24738146477173 0
397 1 21 142.25019695431982 44.16199661950125 0
398 1 22 149.15833747975722 44.39197478517515 0
399 1 1 156.05151752598744 44.31794317756941 0
400 1 22 162.84257723836242 44.257668780256004 0
401 1 21 -3.439857815211275 48.28012796637767 0
402 1 16 3.7102251766013197 48.3984689354967 0
403 1 15 10.642498903627212 48.3396143429233 0
404 1 14 17.34930853624753 48.27806266297759 0
405 1 13 24.637315387808695 48.18032948457814 0
406 1 12 31.438584865017607 48.06984452501415 0
407 1 13 38.36490343484958 48.08824277908302 0
408 1 13 45.06943583319492 48.199155166782454 0
409 1 13 52.22873266253549 48.061726792297655 0
410 1 13 58.92757948226275 48.10453507969071 0
411 1 13 65.9080424590539 48.05289089156115 0
412 1 13 72.95584573260176 48.34883085248166 0
413 1 13 79.73083663724934 48.1936352549873 0
414 1 13 86.7728673188174 48.12116853516454 0
415 1 12 93.80640017706443 48.06329372874584 0
416 1 13 100.83286350547053 48.27147725083185 0
417 1 14 107.7037193061765 48.02074378657044 0
418 1 15 114.3906265775294 48.35437204022012 0
419 1 16 121.40656359140299 48.268547396679246 0
420 1 14 128.39298032724548 48.09984377412575 0
421 1 17 135.49287729796492 48.07336793647418 0
422 1 18 142.28663496930957 48.353041301067776 0
423 1 1 148.98575215574715 48.33744312170927 0
424 1 11 155.9538470655324 48.3767838715313 0
425 1 1 163.10295012480037 48.31093390858835 0
426 1 20 0.1502309466781632 50.12338763061847 0
427 1 15 7.185909593870485 50.25703677066528 0
428 1 16 14.20221295301306 50.374919040522265 0
429 1 19 21.04912995188425 50.06975486043737 0
430 1 12 27.817613303315255 50.05778394528395 0
431 1 12 34.96725394207556 50.04614351161953 0
432 1 12 41.81534882595076 50.1424112097675 0
433 1 12 48.679450810897066 50.33484236701723 0
434 1 12 55.673093887135025 50.37003420127968 0
435 1 12 62.43827231797595 50.212012604949734 0
436 1 12 69.59387397888686 50.28802264235104 0
437 1 12 76.32213736561762 50.126884489189386 0
438 1 12 83.17662445120301 50.30836213530466 0
439 1 12 90.25611826393701 50.323884988547924 0
440 1 12 97.02526589631883 50.13769899162268 0
441 1 19 104.21845795267068 50.097913727285544 0
442 1 16 111.17398897756424 50.01475660710115 0
443 1 15 117.78964638461002 50.32141829220336 0
444 1 20 124.76902802521496 50.17703160780579 0
445 1 17 131.8938654411065 50.280886223997435 0
446 1 21 138.60532243895875 50.04083578927028 0
447 1 22 145.56491110192607 50.00660375316934 0
448 1 26 152.5198003384796 50.30046892044229 0
449 1 26 159.42043249612942 50.127774330423975 0
450 1 22 166.43245402839 50.13696547647436 0
451 1 20 0.20746710614421326 54.21953296115399 0
452 1 15 7.172081160390242 54.318374839902894 0
453 1 16 14.067799503012784 54.14073372881569 0
454 1 19 20.969412533623373 54.13267827188459 0
455 1 12 28.08679689579857 54.103076705765076 0
456 1 12 34.676919121280314 54.06449213106845 0
457 1 12 41.9361782821286 54.08264515765834 0
458 1 12 48.63119238388755 54.321536513812326 0
459 1 12 55.59153266975416 54.2964574770385 0
460 1 12 62.62243490127695 54.14668155039674 0
461 1 12 69.38860948825732 54.200925047708786 0
462 1 12 76.27110223810664 54.30312349628831 0
463 1 12 83.38316058493761 54.33668892962156 0
464 1 12 90.16172330131651 54.26895726673918 0
465 1 12 97.15703716403 54.38054967242954 0
466 1 19 103.94991133839675 54.002278468907775 0
467 1 16 110.99910668196567 54.14352572987365 0
468 1 15 117.97255821420839 54.11205037581364 0
469 1 20 124.7725432658577 54.05960547141332 0
470 1 17 131.7855608158574 54.16494657314445 0
471 1 21 138.6835555728426 54.06219748642476 0
472 1 22 145.78089705217474 54.2138644621731 0
473 1 26 152.59308200706036 54.18503786874931 0
474 1 26 159.4644641435847 54.021550645745606 0
475 1 22 166.49424884249137 54.167938126527666 0
476 1 21 -3.2896530203811283 56.3974555024954 0
477 1 16 3.603212841703518 56.321761368897455 0
478 1 15 10.610547082841363 56.08104554822937 0
479 1 14 17.553815427284583 56.27961489826333 0
480 1 13 24.460546847557378 56.31001862357644 0
481 1 12 31.199038766663737 56.234236808178075 0
482 1 13 38.23931572012989 56.31171677953311 0
483 1 13 45.3875246187203 56.04902200466822 0
484 1 13 52.30025728934857 56.39980950532147 0
485 1 13 59.02701069787012 56.387145861148795 0
486 1 13 65.82370624252938 56.16871322377065 0
487 1 13 72.88746449579911 56.012602220707585 0
488 1 13 79.96895034002581 56.21228850638639 0
489 1 13 86.639054396783 56.22096743659019 0
490 1 12 93.54693585121687 56.27501680394078 0
491 1 13 100.81398240480502 56.0804335187975 0
492 1 14 107.6892495493113 56.19020248532599 0
493 1 15 114.65666618711863 56.288303229846704 0
494 1 16 121.50297778519742 56.1785109523767 0
495 1 14 128.5529471162555 56.01974701367714 0
496 1 17 135.4246449337795 56.023185497937895 0
497 1 18 142.31159004209226 56.16480935461337 0
498 1 1 149.22901985263294 56.06634137913804 0
499 1 11 156.14267294759176 56.212605103560584 0
500 1 1 163.13665799887295 56.27975331709164 0
501 1 6 -3.151489356258983 60.289449987078086 0
502 1 15 3.6495116556591327 60.08490856116973 0
503 1 16 10.631310958383484 60.03487987618279 0
504 1 19 17.649870800437682 60.18343999084739 0
505 1 12 24.455010548189748 60.23678292426778 0
506 1 13 31.573061077650806 60.14160019139468 0
507 1 23 38.22949572919786 60.207035963832666 0
508 1 23 45.31564695723254 60.37093370590381 0
509 1 23 52.35365865623098 60.38265323942543 0
510 1 23 59.13547718128069 60.26331593276438 0
511 1 23 66.07387327154258 60.04862882528213 0
512 1 23 73.09803729178738 60.30620667401319 0
513 1 23 79.98409351391363 60.109843842700144 0
514 1 23 86.6358654795637 60.2535496313525 0
515 1 13 93.92452231006091 60.09372109832933 0
516 1 12 100.6978126819516 60.1070152229724 0
517 1 19 107.73932837861304 60.095681871327635 0
518 1 16 114.33296809105717 60.17220094743345 0
519 1 15 121.46823511557905 60.00762809308538 0
520 1 20 128.36058899467727 60.34753397362832 0
521 1 17 135.31349019181934 60.33676872122962 0
522 1 21 142.196263490471 60.296917021027774 0
523 1 22 149.33408609015353 60.28310046587224 0
524 1 1 155.98370541585209 60.091073910403814 0
525 1 22 163.10161765815312 60.06888617310263 0