
14309 atoms
14896 bonds
16659 angles
30 atom types
9 bond types
23 angle types

-5.680607966083864 171.52447279080386 xlo xhi
-2.0 148.0 ylo yhi
-4 4 zlo zhi


Masses

1 0.00022260892667375136
2 0.0005688894792773646
3 0.00032154622741764085
4 0.0007172954303931988
5 0.0006678267800212541
6 0.0002720775770456961
7 0.00034628055260361323
8 0.0004452178533475027
9 0.0007914984059511159
10 0.0005441551540913921
11 0.0011377789585547292
12 0.0006925611052072264
13 0.0005936238044633369
14 0.0010883103081827843
15 0.0009399043570669501
16 0.00039574920297555795
17 0.0007420297555791712
18 0.0007667640807651435
19 0.0004204835281615303
20 0.0004946865037194475
21 0.00024734325185972374
22 0.0004452178533475027
23 0.0006925611052072264
24 0.00019787460148777897
25 0.0007420297555791712
26 0.0007914984059511159
27 0.0005441551540913921
28 0.0002968119022316684
29 0.00024734325185972374
30 0.0004946865037194475

Pair Coeffs

1 0.40509979849834776 0.44544935907016964 0.5
2 0.40509979849834776 0.44544935907016964 0.5
3 0.40509979849834776 0.44544935907016964 0.5
4 0.40509979849834776 0.44544935907016964 0.5
5 0.40509979849834776 0.44544935907016964 0.5
6 0.40509979849834776 0.44544935907016964 0.5
7 0.40509979849834776 0.44544935907016964 0.5
8 0.40509979849834776 0.44544935907016964 0.5
9 0.40509979849834776 0.44544935907016964 0.5
10 0.40509979849834776 0.44544935907016964 0.5
11 0.40509979849834776 0.44544935907016964 0.5
12 0.40509979849834776 0.44544935907016964 0.5
13 0.40509979849834776 0.44544935907016964 0.5
14 0.40509979849834776 0.44544935907016964 0.5
15 0.40509979849834776 0.44544935907016964 0.5
16 0.40509979849834776 0.44544935907016964 0.5
17 0.40509979849834776 0.44544935907016964 0.5
18 0.40509979849834776 0.44544935907016964 0.5
19 0.40509979849834776 0.44544935907016964 0.5
20 0.40509979849834776 0.44544935907016964 0.5
21 0.40509979849834776 0.44544935907016964 0.5
22 0.40509979849834776 0.44544935907016964 0.5
23 0.40509979849834776 0.44544935907016964 0.5
24 0.40509979849834776 0.44544935907016964 0.5
25 0.40509979849834776 0.44544935907016964 0.5
26 0.40509979849834776 0.44544935907016964 0.5
27 0.40509979849834776 0.44544935907016964 0.5
28 0.40509979849834776 0.44544935907016964 0.5
29 0.40509979849834776 0.44544935907016964 0.5
30 0.40509979849834776 0.44544935907016964 0.5

Bond Coeffs

1 89.04357066950054 0.5
2 138.51222104144526 0.5
3 39.57492029755579 0.5
4 148.40595111583423 0.5
5 158.29968119022317 0.5
6 108.83103081827844 0.5
7 59.36238044633369 0.5
8 49.46865037194475 0.5
9 98.9373007438895 0.5

Angle Coeffs

1 5.88337397313101 180
2 22.145374735626188 180
3 0.5165101979154796 180
4 27.237842468199123 180
5 33.05665266659069 180
6 10.74179802227349 180
7 1.7432219179647432 180
8 1.0088089803036713 180
9 8.07047184242937 180
10 9.296848938826082 120
11 0.9496492667853335 120
12 24.429037337061086 120
13 16.21463228274635 120
14 1.2780219339917476 120
15 0.9708838306681947 120
16 5.88337397313101 120
17 29.866471088139097 120
18 27.237842468199123 120
19 2.9996488336277607 120
20 10.74179802227349 120
21 0.683214547507248 120
22 1.0088089803036713 120
23 8.07047184242937 120

Atoms

1 1 1 -3.240086224674995 0.23225778854755383 0
2 1 2 3.7796500266471633 0.1103226907044534 0
3 1 3 10.43324411607876 0.09167968506695773 0
4 1 4 17.50347470274421 0.39731189178786813 0
5 1 5 24.616615938282294 0.29791659995237174 0
6 1 6 31.201869901226154 0.33513561105722883 0
7 1 7 38.4123207345761 0.08581247079641195 0
8 1 7 45.257893226666674 0.17509431642337844 0
9 1 6 52.08119131552214 0.26826804207764493 0
10 1 5 58.936187871208126 0.1431390066847613 0
11 1 4 66.07899189297551 0.23429608481466224 0
12 1 3 73.10400949033567 0.27679098042170197 0
13 1 2 79.97664538305126 0.008480470833549926 0
14 1 8 86.78970713476794 0.3298576034686494 0
15 1 8 93.54118626542879 0.10070121041056145 0
16 1 8 100.59045955138872 0.07938645775861924 0
17 1 8 107.71971814552087 0.1580144506270693 0
18 1 8 114.71041329044317 0.3287375253527925 0
19 1 8 121.63581213374765 0.12093039128409307 0
20 1 2 128.49880547758508 0.2039155269248116 0
21 1 3 135.27469903481554 0.11365110143320455 0
22 1 4 142.3583524433247 0.0018375212003336916 0
23 1 5 149.30129232714702 0.39379313996713255 0
24 1 6 156.00547513633197 0.3674267448366544 0
25 1 7 163.15386676835038 0.3482973019750628 0
26 1 9 0.10519297236315955 2.3436518871410583 0
27 1 10 7.277788304875423 2.078389263871755 0
28 1 9 14.037196393268074 2.1204070789489298 0
29 1 11 21.13283639689982 2.3305944073129017 0
30 1 12 27.99235187332386 2.2961747463156517 0
31 1 7 35.01818390658652 2.122949286208732 0
32 1 13 41.59091267906337 2.011064837772781 0
33 1 7 48.713052876614846 2.01500391299882 0
34 1 12 55.45515047907854 2.1778507402124556 0
35 1 11 62.46256713752389 2.10160332375177 0
36 1 9 69.3593279936214 2.193402417359341 0
37 1 10 76.56862155827619 2.3508494602641092 0
38 1 9 83.322682309178 2.2460548083518046 0
39 1 10 90.10566796838653 2.1019829105174463 0
40 1 10 97.33002071100506 2.32244052681942 0
41 1 10 104.24016138135408 2.215294071988909 0
42 1 10 110.88873684239053 2.2549440837984536 0
43 1 10 118.0195729399158 2.333829788384771 0
44 1 9 124.98092119531718 2.3556662376910786 0
45 1 10 131.98188523406654 2.3279235764349675 0
46 1 9 138.70692747089586 2.3808602610084098 0
47 1 11 145.7334456534767 2.119568240739276 0
48 1 12 152.52281533746324 2.2122204988766603 0
49 1 7 159.58034280102856 2.2289165528946255 0
50 1 13 166.333098622536 2.0162215818594684 0
51 1 10 0.33002729160939714 6.207941896346433 0
52 1 9 6.986738415582848 6.0399440031638285 0
53 1 10 14.116895837642012 6.128539062601897 0
54 1 14 21.06559775783119 6.0116361460660315 0
55 1 15 27.79030331677046 6.157397197578856 0
56 1 16 34.90801131214395 6.141277567992346 0
57 1 7 41.89854202433399 6.272610240930943 0
58 1 16 48.511744150392886 6.320100809771432 0
59 1 15 55.445930795992304 6.233831570573936 0
60 1 14 62.66601114711576 6.383351008091039 0
61 1 10 69.32480097681652 6.185639932871207 0
62 1 9 76.6010671400984 6.001172912623958 0
63 1 10 83.3799654020432 6.329082522681384 0
64 1 10 90.29906990441489 6.170665501106897 0
65 1 10 97.33726241389866 6.126255362549392 0
66 1 10 104.04641779388277 6.192240642768856 0
67 1 10 111.11815761986493 6.135081089457153 0
68 1 10 118.11142214977025 6.340065927200358 0
69 1 10 124.93561907147156 6.06741649393288 0
70 1 9 131.81867606519037 6.028853821635771 0
71 1 10 138.85444901831815 6.18827410012276 0
72 1 14 145.8629743399595 6.094335605440062 0
73 1 15 152.63313384629967 6.322301108190477 0
74 1 16 159.48877280104034 6.211807910772628 0
75 1 7 166.66336909501524 6.067207792271106 0
76 1 3 -3.21291690923767 8.286936352773308 0
77 1 9 3.480121140344394 8.299684847887479 0
78 1 10 10.52231494232945 8.020041740466462 0
79 1 9 17.516890612311148 8.04886638370892 0
80 1 11 24.385389298241837 8.181852477245279 0
81 1 12 31.336602512088856 8.198991313257059 0
82 1 16 38.266066408470785 8.11108768681245 0
83 1 16 45.305687296605754 8.200734998047459 0
84 1 12 52.09251565624116 8.240752252620906 0
85 1 11 59.17620279247131 8.320833132523912 0
86 1 9 66.09891175120573 8.230331958998988 0
87 1 10 72.90154782088646 8.098646646162454 0
88 1 9 80.03786794419985 8.328092575481794 0
89 1 10 86.67070927589475 8.161344308729204 0
90 1 9 93.65165272631587 8.298762329907598 0
91 1 9 100.6100877537009 8.226097285133108 0
92 1 9 107.4980654955482 8.272699499041856 0
93 1 9 114.3953973163386 8.126033043551114 0
94 1 10 121.474366955102 8.377862030451173 0
95 1 9 128.45950167835042 8.107487117640035 0
96 1 10 135.37462102509758 8.39601864853269 0
97 1 9 142.03551753068697 8.381624154508412 0
98 1 11 149.01845697326368 8.037223137010983 0
99 1 12 156.00314440856584 8.163500989195901 0
100 1 16 163.11217182981076 8.302455487683869 0
101 1 8 -3.1304973406780103 12.302541918068542 0
102 1 10 3.7984116636787837 12.324740007379699 0
103 1 9 10.472876056639352 12.137433705433496 0
104 1 10 17.696657872073065 12.204816141714247 0
105 1 14 24.48692290117509 12.097085441795842 0
106 1 15 31.436338431700996 12.017861390948148 0
107 1 12 38.4013169835447 12.220251728976168 0
108 1 12 45.35353766333344 12.234840184890684 0
109 1 15 51.99606264970483 12.120704113420715 0
110 1 14 59.188523891883925 12.251466970931055 0
111 1 10 66.10874784223134 12.3415135413284 0
112 1 9 73.04925988143863 12.300671734792216 0
113 1 10 79.79454495587923 12.332217230013535 0
114 1 9 86.73179714375115 12.297150359946441 0
115 1 14 93.89386640039604 12.309897680255988 0
116 1 14 100.76795037728411 12.251149504311213 0
117 1 14 107.68848119272832 12.232128731136568 0
118 1 14 114.4435667542937 12.182309929625395 0
119 1 9 121.5285800416835 12.063388866369593 0
120 1 10 128.3437409852578 12.258537482549427 0
121 1 9 135.4685639116023 12.33243414696077 0
122 1 10 142.31211938568546 12.333196863877228 0
123 1 14 149.10354470808113 12.258202640888607 0
124 1 15 156.2186068726818 12.335146170185311 0
125 1 12 162.88022013471283 12.045015807778562 0
126 1 10 0.02379740681954843 14.334097747782016 0
127 1 9 6.981050584202162 14.393725159659008 0
128 1 10 13.991755251486147 14.084775247062568 0
129 1 9 21.12651736716456 14.174346060092267 0
130 1 11 27.787979972976746 14.268053226567309 0
131 1 15 34.66742140202205 14.397208040151826 0
132 1 15 41.688738712871 14.241904868784697 0
133 1 15 48.51796440681606 14.097454913394822 0
134 1 11 55.71145046860176 14.16481994162268 0
135 1 9 62.7351107128183 14.038491543345753 0
136 1 10 69.63525798998353 14.372760989095125 0
137 1 9 76.27773250443099 14.34457888527983 0
138 1 10 83.2296663795206 14.03067755305344 0
139 1 14 90.3972327131589 14.314482986194443 0
140 1 11 97.1559261565235 14.018611374017373 0
141 1 11 104.04477868697714 14.056637624061235 0
142 1 11 111.04269772796772 14.315173274714766 0
143 1 14 117.9295525676511 14.226127339885185 0
144 1 10 125.00447078045462 14.322616359198129 0
145 1 9 131.83017175371478 14.204224797437309 0
146 1 10 138.93838472129775 14.355597621566544 0
147 1 9 145.52351513996612 14.205867073140496 0
148 1 11 152.76720909044286 14.210561027034302 0
149 1 15 159.57342939420172 14.197298215025777 0
150 1 15 166.28781989563166 14.12269529858222 0
151 1 9 0.16776649799093557 18.251783352814083 0
152 1 10 7.057666941479904 18.040093435558838 0
153 1 9 14.016181350129289 18.24133196373641 0
154 1 10 20.888077126932455 18.320707523517637 0
155 1 14 27.83881474590004 18.33412714044309 0
156 1 11 34.88619855178202 18.105428790264728 0
157 1 11 41.6382352376667 18.315349307438545 0
158 1 11 48.78557231711676 18.07389946525861 0
159 1 14 55.65415929461881 18.28401803823057 0
160 1 10 62.69937383604152 18.279675234733723 0
161 1 9 69.67038779733677 18.182306736417416 0
162 1 10 76.55400606330446 18.09940153803517 0
163 1 9 83.19881033812264 18.17259689547882 0
164 1 11 90.20477225113578 18.006486625303808 0
165 1 15 97.28645839781663 18.37044657307588 0
166 1 15 104.17442963881595 18.2084431131216 0
167 1 15 110.8879488199362 18.156725690667734 0
168 1 11 118.04238419191175 18.049686630507264 0
169 1 9 124.97485771688048 18.03750397159002 0
170 1 10 131.73449502468407 18.120339500958035 0
171 1 9 138.6127519895852 18.281118823065682 0
172 1 10 145.58495933615754 18.16349743688274 0
173 1 14 152.44477638262 18.29648881037571 0
174 1 11 159.58744415471233 18.041090883858846 0
175 1 11 166.6329211179668 18.059427443758825 0
176 1 4 -3.239856082836834 20.32747203884171 0
177 1 10 3.752308206050885 20.162400499990117 0
178 1 9 10.6492500408359 20.323749164036265 0
179 1 10 17.658271674804162 20.366416367040795 0
180 1 9 24.58605024157109 20.120657950153625 0
181 1 14 31.301321499083354 20.14062059973943 0
182 1 14 38.29206212904736 20.227120415952054 0
183 1 14 45.405988476015835 20.324574595948626 0
184 1 14 52.263463095481505 20.069806470579305 0
185 1 9 59.058367913697495 20.31059243094968 0
186 1 10 66.11553787222564 20.288028738982394 0
187 1 9 73.03741714133878 20.237416883749724 0
188 1 10 79.97053188546779 20.336585681610128 0
189 1 14 86.97554528597047 20.184345082045933 0
190 1 15 93.66284127278168 20.374877501232536 0
191 1 12 100.49776907046997 20.39935829668141 0
192 1 12 107.66089101439373 20.105617046396567 0
193 1 15 114.44101635548377 20.326203497749187 0
194 1 14 121.54245219846243 20.061611963875492 0
195 1 10 128.52679232382175 20.242139479112897 0
196 1 9 135.19886710179318 20.244226028124228 0
197 1 10 142.19982497562586 20.191927173086917 0
198 1 9 149.34925349440638 20.22227623554338 0
199 1 14 155.9780498874286 20.079023681380317 0
200 1 14 163.01221003533448 20.18817130743012 0
201 1 17 -3.107148122522602 24.103437075633646 0
202 1 9 3.4887033130317593 24.100413626631532 0
203 1 10 10.586915494669867 24.232183272139032 0
204 1 9 17.683773002881775 24.200933089701728 0
205 1 10 24.409650652991434 24.375449967812568 0
206 1 9 31.336462051937865 24.270553350480398 0
207 1 9 38.22072320724203 24.028513888649627 0
208 1 9 45.35275359157176 24.103403902167127 0
209 1 9 52.28280527788413 24.198855259372607 0
210 1 10 58.91777873032876 24.35456697302603 0
211 1 9 66.1060632188626 24.034622696542428 0
212 1 10 72.96768437107059 24.389732566665792 0
213 1 9 79.80668705094142 24.264393921378907 0
214 1 11 86.79575245737594 24.10784057355362 0
215 1 12 93.88962758382817 24.09116920260128 0
216 1 16 100.53663045408736 24.15756301274024 0
217 1 16 107.4150565436797 24.207892158100634 0
218 1 12 114.69949690455618 24.011084749824125 0
219 1 11 121.48380726290344 24.082212180336022 0
220 1 9 128.2491002252692 24.342501880044342 0
221 1 10 135.3133267690301 24.30968967286257 0
222 1 9 142.2664991988597 24.184566418626186 0
223 1 10 149.07012569730145 24.33004530666234 0
224 1 9 156.03231079860097 24.374407527184744 0
225 1 9 162.89120945763753 24.203848680624738 0
226 1 14 0.25925119728289786 26.316396657772522 0
227 1 10 6.969136576806282 26.12220645852149 0
228 1 9 13.862190425921316 26.189906061120933 0
229 1 10 20.89738901082472 26.181571099661312 0
230 1 10 27.954449469092182 26.236048739792903 0
231 1 10 35.0358397972998 26.059658228299444 0
232 1 10 41.66690384081517 26.387102140955065 0
233 1 10 48.69662681764895 26.135091266567443 0
234 1 10 55.48976378795722 26.198912369919974 0
235 1 10 62.37777972880623 26.0283462934256 0
236 1 9 69.29986510887001 26.212754713024367 0
237 1 10 76.2139813688988 26.309640876719254 0
238 1 14 83.1756455832093 26.22508612437252 0
239 1 15 90.39793397955108 26.343314736694147 0
240 1 16 97.34381433183991 26.25990774636581 0
241 1 7 104.25386115064998 26.21977156126655 0
242 1 16 111.13907714076052 26.067191641725078 0
243 1 15 117.93201007167774 26.0118753402484 0
244 1 14 125.07087174712376 26.365667796529966 0
245 1 10 131.78448137806507 26.3118253149398 0
246 1 9 138.9356689364069 26.164260167072626 0
247 1 10 145.8206043155689 26.187291200749172 0
248 1 10 152.43866493261356 26.368131937974315 0
249 1 10 159.57810588012023 26.328529824387683 0
250 1 10 166.35949332449084 26.389413477952115 0
251 1 11 0.12980011484933637 30.327072322794063 0
252 1 9 6.944678471507482 30.107629413402776 0
253 1 10 14.202922963470215 30.304911870240648 0
254 1 9 21.161818192558183 30.060478732710546 0
255 1 10 28.06274660352663 30.039113088157432 0
256 1 10 35.00750089395877 30.00045082401517 0
257 1 10 41.62666260748779 30.329764934849933 0
258 1 10 48.641261449255204 30.066867518571346 0
259 1 10 55.6420774592154 30.195940093071112 0
260 1 9 62.58789449302565 30.180841967796994 0
261 1 10 69.42239343584859 30.26338799527768 0
262 1 9 76.23566038128662 30.298677720386614 0
263 1 11 83.53165519938369 30.28350414524253 0
264 1 12 90.38375894494123 30.076990868764074 0
265 1 7 97.02926869234979 30.249020419445323 0
266 1 13 104.05029880240625 30.011494169614146 0
267 1 7 111.17649672389994 30.20488226744408 0
268 1 12 118.06136817020766 30.162166682026985 0
269 1 11 124.86568554626709 30.270469927570574 0
270 1 9 131.95877523854375 30.200355070745193 0
271 1 10 138.71060229602708 30.194098807831836 0
272 1 9 145.81365142011782 30.270341720149354 0
273 1 10 152.50739505886241 30.018645111810486 0
274 1 10 159.54517033678647 30.08968640001342 0
275 1 10 166.6170642699356 30.155449245348244 0
276 1 5 -3.2559944259848317 32.227013566908795 0
277 1 14 3.5899781552168917 32.014093838892165 0
278 1 10 10.59602032159241 32.18110885682759 0
279 1 9 17.388787789595916 32.376319791203606 0
280 1 9 24.52090909463928 32.129375814097465 0
281 1 9 31.52459167948121 32.152351893840326 0
282 1 9 38.26897518950558 32.38830454908579 0
283 1 9 45.12603919994452 32.28158162162613 0
284 1 9 52.01120193882866 32.005690611555714 0
285 1 9 59.0467823072524 32.04730363742973 0
286 1 9 66.1269002070493 32.29146742267588 0
287 1 10 72.90636461342582 32.262691137893036 0
288 1 14 79.80748039920606 32.3640102422913 0
289 1 15 86.66602284053131 32.023068350004095 0
290 1 16 93.58232823708171 32.07461152050305 0
291 1 13 100.64527200928671 32.33718592129394 0
292 1 13 107.54990649379562 32.28394852034734 0
293 1 16 114.36690917272792 32.33950118929751 0
294 1 15 121.45274480805395 32.35118500770044 0
295 1 14 128.46201371632182 32.259982215980735 0
296 1 10 135.14482310909602 32.36372923639745 0
297 1 9 142.20310640907357 32.12015758773669 0
298 1 9 149.15545353755013 32.394913175304175 0
299 1 9 156.03592893166717 32.222860927630116 0
300 1 9 162.90124767866112 32.08552400777875 0
301 1 5 -3.190628620461499 36.34500066090241 0
302 1 14 3.7548434618932807 36.017102999998606 0
303 1 10 10.737827538294502 36.20443259697529 0
304 1 9 17.472453716380063 36.243292852831644 0
305 1 9 24.289854138162518 36.25541033381735 0
306 1 9 31.28164927013861 36.358503380395284 0
307 1 9 38.204002651517776 36.19486399186134 0
308 1 9 45.315987903412434 36.23997242444739 0
309 1 9 52.0544393695403 36.089706495729544 0
310 1 9 59.04625273042583 36.33245787270653 0
311 1 9 65.93075942111466 36.10901613901193 0
312 1 10 72.7772457004887 36.07945197095298 0
313 1 14 79.96199552766143 36.314594468832524 0
314 1 15 86.80197194730417 36.14538130912456 0
315 1 16 93.70548308402647 36.397051144498384 0
316 1 13 100.64563182734325 36.21165603005841 0
317 1 13 107.73798315900567 36.050978274874694 0
318 1 16 114.69720417656077 36.02041210454891 0
319 1 15 121.54878435438556 36.045094273520874 0
320 1 14 128.17921122381347 36.359988877423916 0
321 1 10 135.23966099288552 36.010657599503 0
322 1 9 142.0706456557793 36.1346813779558 0
323 1 9 149.35405140549577 36.11159100317771 0
324 1 9 156.1230801635614 36.359636061956195 0
325 1 9 163.1533859485953 36.09126303972956 0
326 1 11 0.13784961466818543 38.27532941668602 0
327 1 9 6.943882080883336 38.18690165417895 0
328 1 10 14.165525688071472 38.354010875588614 0
329 1 9 21.17849106539145 38.25714699625512 0
330 1 10 27.764112842420687 38.036399461080556 0
331 1 10 34.90326838531761 38.00874386409659 0
332 1 10 41.87954475346963 38.12099213090804 0
333 1 10 48.812642994721784 38.381312786284624 0
334 1 10 55.466065964690515 38.30506665382266 0
335 1 9 62.576793798076174 38.02361222295641 0
336 1 10 69.42003371385685 38.17820892564595 0
337 1 9 76.22739162126807 38.105885965929595 0
338 1 11 83.42388060047334 38.02042627960356 0
339 1 12 90.07649941625503 38.00619756453422 0
340 1 7 97.03183073684804 38.34831409914386 0
341 1 13 104.24651996793555 38.09466553102937 0
342 1 7 110.98684592607452 38.34839799791149 0
343 1 12 117.92536810905588 38.17457905805081 0
344 1 11 124.8425507609481 38.24022770902542 0
345 1 9 131.96339778418337 38.0594945890465 0
346 1 10 138.8450268218023 38.35904243383802 0
347 1 9 145.5345784746025 38.37846193638289 0
348 1 10 152.59425351984999 38.05376952972894 0
349 1 10 159.4100606034303 38.329406812443736 0
350 1 10 166.36753598299975 38.14896317750665 0
351 1 14 0.10998185422138201 42.12718387044254 0
352 1 10 7.286246545063788 42.17484037893123 0
353 1 9 14.060885530452346 42.106905673719076 0
354 1 10 20.827243977192698 42.34018331081545 0
355 1 10 28.09577901346269 42.07647561443024 0
356 1 10 34.88086093233143 42.012805517840384 0
357 1 10 41.66259558043782 42.0554204402887 0
358 1 10 48.82185110555032 42.252654017666714 0
359 1 10 55.73030602697733 42.378976566380516 0
360 1 10 62.633909517074024 42.04860223104217 0
361 1 9 69.54987676254949 42.33803192685119 0
362 1 10 76.37544583845467 42.30206967364812 0
363 1 14 83.20109264685937 42.357914204714724 0
364 1 15 90.25184314679612 42.27345813642111 0
365 1 16 97.30403790239693 42.15921646217458 0
366 1 7 104.05801565320132 42.04332285457146 0
367 1 16 111.07884855330848 42.11756749273264 0
368 1 15 118.13598698526148 42.09471146236474 0
369 1 14 124.9025550969586 42.27292680537353 0
370 1 10 131.96024339761672 42.30602755707354 0
371 1 9 138.90163990126362 42.05263578850663 0
372 1 10 145.63053858766315 42.38428827442552 0
373 1 10 152.50889711321392 42.241167059408646 0
374 1 10 159.63238735588718 42.19049336859831 0
375 1 10 166.34456905743227 42.29750974992854 0
376 1 17 -3.1058035621777167 44.21006402851687 0
377 1 9 3.5074889279079033 44.19798481835454 0
378 1 10 10.604488416840832 44.18422213556608 0
379 1 9 17.68873480487983 44.22955363878792 0
380 1 10 24.454855808426522 44.071920802025524 0
381 1 9 31.318935589429515 44.15234842735488 0
382 1 9 38.41632427665249 44.23743686263037 0
383 1 9 45.39992725213997 44.17274620836263 0
384 1 9 52.04060793262955 44.256569274363706 0
385 1 10 59.27331749311577 44.05876603034953 0
386 1 9 65.88561775446149 44.08311655833491 0
387 1 10 73.06562555089465 44.20824264320289 0
388 1 9 79.87310359257641 44.09870162090582 0
389 1 11 86.76299837903224 44.261357597107676 0
390 1 12 93.62173535196779 44.21686561601155 0
391 1 16 100.8275894691507 44.005427351316015 0
392 1 16 107.7054356067385 44.35319332892401 0
393 1 12 114.35144188550879 44.14794687757959 0
394 1 11 121.5884857614056 44.383719854517686 0
395 1 9 128.42131567238522 44.34560191536972 0
396 1 10 135.36254374812196 44.33336552896118 0
397 1 9 142.29166524691922 44.3709034080232 0
398 1 10 149.16346953148405 44.217038093687066 0
399 1 9 155.97806762806576 44.28663021620798 0
400 1 9 163.06161537084228 44.05801605336335 0
401 1 4 -3.321336460852979 48.272860608870175 0
402 1 10 3.579221239600418 48.05809336726534 0
403 1 9 10.691415663134086 48.1573608765907 0
404 1 10 17.522856496249165 48.185139926008304 0
405 1 9 24.431785000527313 48.25098987440929 0
406 1 14 31.2595928709399 48.330560223978 0
407 1 14 38.289284136409236 48.31301026250745 0
408 1 14 45.21370315389068 48.10664240130338 0
409 1 14 52.11048623871876 48.11929922868192 0
410 1 9 59.279011876101364 48.047369528563415 0
411 1 10 66.1552928191444 48.06485252156287 0
412 1 9 73.01034518801804 48.34875519579103 0
413 1 10 80.03096212457122 48.39445889522081 0
414 1 14 86.78405537024194 48.129042889343225 0
415 1 15 93.72747107755269 48.13112939359147 0
416 1 12 100.5494249073445 48.103667193567816 0
417 1 12 107.54627466733965 48.24272031803024 0
418 1 15 114.58355534066334 48.245711254617596 0
419 1 14 121.44016666029894 48.211567211662945 0
420 1 10 128.3704178397222 48.372662955616164 0
421 1 9 135.20482833895733 48.397399625776174 0
422 1 10 142.25663577839555 48.265162533842826 0
423 1 9 149.01713490179174 48.272784173563196 0
424 1 14 156.0063671886141 48.26488619133338 0
425 1 14 163.0189512738711 48.0762483576278 0
426 1 9 0.07477504280167624 50.34314502848589 0
427 1 10 6.985750091368909 50.082307478203475 0
428 1 9 14.092446854571849 50.39507266589255 0
429 1 10 20.787614290019103 50.30474422094598 0
430 1 14 28.039831704835688 50.01834096511815 0
431 1 11 34.850613658762256 50.168781815442415 0
432 1 11 41.57442721353629 50.081472163646005 0
433 1 11 48.88106750693989 50.02059451907196 0
434 1 14 55.811902104929416 50.26314450756292 0
435 1 10 62.355154163184515 50.25793959124646 0
436 1 9 69.56742259822256 50.247998221980524 0
437 1 10 76.57259736646294 50.274357045569815 0
438 1 9 83.15721897961112 50.15406881809939 0
439 1 11 90.36385743009784 50.393123908544965 0
440 1 15 97.3405085823668 50.20721297869908 0
441 1 15 103.99183060709149 50.33767606655077 0
442 1 15 111.06638756030105 50.021664228967964 0
443 1 11 117.92836360685328 50.29843033041061 0
444 1 9 124.98744727217945 50.27801104742273 0
445 1 10 131.92779363585228 50.066520877051666 0
446 1 9 138.7346380136167 50.06757127316201 0
447 1 10 145.69379051156002 50.10167887913209 0
448 1 14 152.53371057471307 50.04987575976193 0
449 1 11 159.64220945377744 50.045949315473266 0
450 1 11 166.6744820261223 50.07729434791114 0
451 1 10 0.1759625310078159 54.36822645775777 0
452 1 9 7.206931520829026 54.35154800515679 0
453 1 10 13.899366793187246 54.38287269497794 0
454 1 9 20.97420411777282 54.229245864461 0
455 1 11 28.033539918265934 54.20013594674304 0
456 1 15 34.64962224333332 54.275839096880006 0
457 1 15 41.81230647089381 54.0792357943697 0
458 1 15 48.8751978066843 54.31625306655714 0
459 1 11 55.51962588396978 54.14404776334868 0
460 1 9 62.54208872377722 54.34139788432649 0
461 1 10 69.4606605031817 54.16571356767477 0
462 1 9 76.38606679342402 54.398246512272706 0
463 1 10 83.14746061096872 54.333560902684084 0
464 1 14 90.32396325771923 54.017189494854726 0
465 1 11 97.38166713929775 54.048047855018076 0
466 1 11 104.10540594466343 54.398942291564104 0
467 1 11 111.00367536272127 54.01801182847311 0
468 1 14 118.04728837195537 54.03365818884137 0
469 1 10 124.98314460079985 54.25956128422656 0
470 1 9 131.90582844374114 54.37340223255308 0
471 1 10 138.56674936522373 54.164701906629105 0
472 1 9 145.85050339716278 54.336263811882624 0
473 1 11 152.79661743406263 54.342008370122805 0
474 1 15 159.42905048935842 54.19727819242645 0
475 1 15 166.3842576109287 54.273658268334955 0
476 1 8 -3.064290894493218 56.355093920680716 0
477 1 10 3.751308937969012 56.05054572114753 0
478 1 9 10.621158942526327 56.03717214376613 0
479 1 10 17.409223518232047 56.24257635308135 0
480 1 14 24.285839655239155 56.20288713099787 0
481 1 15 31.206238915484732 56.033100235976455 0
482 1 12 38.42586363152927 56.306724223542616 0
483 1 12 45.04086938840171 56.370515762056414 0
484 1 15 52.2716658393102 56.17760764805897 0
485 1 14 59.203255290754655 56.3755351729624 0
486 1 10 65.97939474562867 56.188079173519256 0
487 1 9 73.08484183613456 56.279232384739444 0
488 1 10 79.72679596043928 56.176421819023226 0
489 1 9 86.93347225264989 56.0027875657119 0
490 1 14 93.73536126604715 56.33210956054813 0
491 1 14 100.47515407363136 56.225902009075334 0
492 1 14 107.5716087212921 56.35943542166989 0
493 1 14 114.55882218729035 56.053810754410655 0
494 1 9 121.49320498615194 56.1110168317178 0
495 1 10 128.19361638057754 56.17628901239021 0
496 1 9 135.21785299564243 56.15330501955732 0
497 1 10 142.1041841062121 56.34926053504975 0
498 1 14 149.1641477587701 56.12836218316666 0
499 1 15 156.16974964356473 56.3365177072105 0
500 1 12 163.05139346759154 56.26671227450749 0
501 1 3 -3.3169928031498883 60.33269236874006 0
502 1 9 3.806796122934837 60.239860120485915 0
503 1 10 10.668565818561298 60.376586864940336 0
504 1 9 17.60991207972569 60.342354607165 0
505 1 11 24.49613604495889 60.09118451135465 0
506 1 12 31.305893190655574 60.16077758313788 0
507 1 16 38.45301851044415 60.21410698852733 0
508 1 16 45.30288405709787 60.30719981485621 0
509 1 12 52.00142927518785 60.142029943171785 0
510 1 11 59.20102580469395 60.36756920181442 0
511 1 9 66.04041003987054 60.20612849324745 0
512 1 10 72.93290367984815 60.24957264003514 0
513 1 9 79.68311037286111 60.32135613327392 0
514 1 10 86.6177106192878 60.31012383391427 0
515 1 9 93.80870770111265 60.31339049284179 0
516 1 9 100.77278786449105 60.261101454527164 0
517 1 9 107.4928867961685 60.320480814672315 0
518 1 9 114.45938487113774 60.08468648305788 0
519 1 10 121.3780563575214 60.203981278392526 0
520 1 9 128.1793884456229 60.09264068746055 0
521 1 10 135.21159919705613 60.15809937081008 0
522 1 9 142.25284708690273 60.18035434367321 0
523 1 11 149.1871501505243 60.380827936957225 0
524 1 12 156.14208066333313 60.131594376514435 0
525 1 16 163.13789993766082 60.06448948640795 0
526 1 10 0.06887103827607986 62.38447923389962 0
527 1 9 7.263191227260158 62.23528727513344 0
528 1 10 14.063858730426848 62.180251287842644 0
529 1 14 21.032430259593237 62.20266000235521 0
530 1 15 27.97140993363143 62.197085787345586 0
531 1 16 34.7610998066816 62.254125324193915 0
532 1 7 41.78481482029925 62.11243067346394 0
533 1 16 48.640911838635255 62.13881970510343 0
534 1 15 55.730039832213514 62.23698304203519 0
535 1 14 62.52724973063521 62.15621391824322 0
536 1 10 69.59628503519217 62.13258235046674 0
537 1 9 76.45333750249262 62.16353646109619 0
538 1 10 83.50626163441429 62.05685789040249 0
539 1 10 90.18047264621624 62.10450567687352 0
540 1 10 97.26027796458085 62.39880170466669 0
541 1 10 104.19487666789054 62.1439087446301 0
542 1 10 110.98586084888602 62.2834488581594 0
543 1 10 117.99840868799058 62.21011670713557 0
544 1 10 124.87573488405694 62.3224368945363 0
545 1 9 131.7491523633054 62.00525486911089 0
546 1 10 138.91049291222484 62.02751338835861 0
547 1 14 145.67695184244872 62.019730489155236 0
548 1 15 152.6434028804217 62.01761364624532 0
549 1 16 159.68580370702784 62.392562608971105 0
550 1 7 166.4792431922476 62.1779685276933 0
551 1 9 0.03942627106592603 66.03044888640711 0
552 1 10 7.050019619499154 66.24810392790906 0